ITEM: TIMESTEP
60
ITEM: NUMBER OF ATOMS
9826
ITEM: BOX BOUNDS pp pp pp
1.2134564336000214e+01 7.2865435663999477e+01
1.2134564336000214e+01 7.2865435663999477e+01
1.2134564336000214e+01 7.2865435663999477e+01
ITEM: ATOMS id type xu yu zu 
1 1 12.1346 12.1346 12.1346 
2 1 13.9208 13.9208 13.9208 
3 1 15.707 12.1346 12.1346 
4 1 17.4932 13.9208 13.9208 
5 1 19.2794 12.1346 12.1346 
6 1 21.0656 13.9208 13.9208 
7 1 22.8518 12.1346 12.1346 
8 1 24.638 13.9208 13.9208 
9 1 26.4242 12.1346 12.1346 
10 1 28.2104 13.9208 13.9208 
11 1 29.9966 12.1346 12.1346 
12 1 31.7828 13.9208 13.9208 
13 1 33.569 12.1346 12.1346 
14 1 35.3552 13.9208 13.9208 
15 1 37.1414 12.1346 12.1346 
16 1 38.9276 13.9208 13.9208 
17 1 40.7138 12.1346 12.1346 
18 1 42.5 13.9208 13.9208 
19 1 44.2862 12.1346 12.1346 
20 1 46.0724 13.9208 13.9208 
21 1 47.8586 12.1346 12.1346 
22 1 49.6448 13.9208 13.9208 
23 1 51.431 12.1346 12.1346 
24 1 53.2172 13.9208 13.9208 
25 1 55.0034 12.1346 12.1346 
26 1 56.7896 13.9208 13.9208 
27 1 58.5758 12.1346 12.1346 
28 1 60.362 13.9208 13.9208 
29 1 62.1482 12.1346 12.1346 
30 1 63.9344 13.9208 13.9208 
31 1 65.7206 12.1346 12.1346 
32 1 67.5068 13.9208 13.9208 
33 1 69.293 12.1346 12.1346 
34 1 71.0792 13.9208 13.9208 
35 1 12.1346 15.707 12.1346 
36 1 13.9208 17.4932 13.9208 
37 1 15.707 15.707 12.1346 
38 1 17.4932 17.4932 13.9208 
39 1 19.2794 15.707 12.1346 
40 1 21.0656 17.4932 13.9208 
41 1 22.8518 15.707 12.1346 
42 1 24.638 17.4932 13.9208 
43 1 26.4242 15.707 12.1346 
44 1 28.2104 17.4932 13.9208 
45 1 29.9966 15.707 12.1346 
46 1 31.7828 17.4932 13.9208 
47 1 33.569 15.707 12.1346 
48 1 35.3552 17.4932 13.9208 
49 1 37.1414 15.707 12.1346 
50 1 38.9276 17.4932 13.9208 
51 1 40.7138 15.707 12.1346 
52 1 42.5 17.4932 13.9208 
53 1 44.2862 15.707 12.1346 
54 1 46.0724 17.4932 13.9208 
55 1 47.8586 15.707 12.1346 
56 1 49.6448 17.4932 13.9208 
57 1 51.431 15.707 12.1346 
58 1 53.2172 17.4932 13.9208 
59 1 55.0034 15.707 12.1346 
60 1 56.7896 17.4932 13.9208 
61 1 58.5758 15.707 12.1346 
62 1 60.362 17.4932 13.9208 
63 1 62.1482 15.707 12.1346 
64 1 63.9344 17.4932 13.9208 
65 1 65.7206 15.707 12.1346 
66 1 67.5068 17.4932 13.9208 
67 1 69.293 15.707 12.1346 
68 1 71.0792 17.4932 13.9208 
69 1 12.1346 19.2794 12.1346 
70 1 13.9208 21.0656 13.9208 
71 1 15.707 19.2794 12.1346 
72 1 17.4932 21.0656 13.9208 
73 1 19.2794 19.2794 12.1346 
74 1 21.0656 21.0656 13.9208 
75 1 22.8518 19.2794 12.1346 
76 1 24.638 21.0656 13.9208 
77 1 26.4242 19.2794 12.1346 
78 1 28.2104 21.0656 13.9208 
79 1 29.9966 19.2794 12.1346 
80 1 31.7828 21.0656 13.9208 
81 1 33.569 19.2794 12.1346 
82 1 35.3552 21.0656 13.9208 
83 1 37.1414 19.2794 12.1346 
84 1 38.9276 21.0656 13.9208 
85 1 40.7138 19.2794 12.1346 
86 1 42.5 21.0656 13.9208 
87 1 44.2862 19.2794 12.1346 
88 1 46.0724 21.0656 13.9208 
89 1 47.8586 19.2794 12.1346 
90 1 49.6448 21.0656 13.9208 
91 1 51.431 19.2794 12.1346 
92 1 53.2172 21.0656 13.9208 
93 1 55.0034 19.2794 12.1346 
94 1 56.7896 21.0656 13.9208 
95 1 58.5758 19.2794 12.1346 
96 1 60.362 21.0656 13.9208 
97 1 62.1482 19.2794 12.1346 
98 1 63.9344 21.0656 13.9208 
99 1 65.7206 19.2794 12.1346 
100 1 67.5068 21.0656 13.9208 
101 1 69.293 19.2794 12.1346 
102 1 71.0792 21.0656 13.9208 
103 1 12.1346 22.8518 12.1346 
104 1 13.9208 24.638 13.9208 
105 1 15.707 22.8518 12.1346 
106 1 17.4932 24.638 13.9208 
107 1 19.2794 22.8518 12.1346 
108 1 21.0656 24.638 13.9208 
109 1 22.8518 22.8518 12.1346 
110 1 24.638 24.638 13.9208 
111 1 26.4242 22.8518 12.1346 
112 1 28.2104 24.638 13.9208 
113 1 29.9966 22.8518 12.1346 
114 1 31.7828 24.638 13.9208 
115 1 33.569 22.8518 12.1346 
116 1 35.3552 24.638 13.9208 
117 1 37.1414 22.8518 12.1346 
118 1 38.9276 24.638 13.9208 
119 1 40.7138 22.8518 12.1346 
120 1 42.5 24.638 13.9208 
121 1 44.2862 22.8518 12.1346 
122 1 46.0724 24.638 13.9208 
123 1 47.8586 22.8518 12.1346 
124 1 49.6448 24.638 13.9208 
125 1 51.431 22.8518 12.1346 
126 1 53.2172 24.638 13.9208 
127 1 55.0034 22.8518 12.1346 
128 1 56.7896 24.638 13.9208 
129 1 58.5758 22.8518 12.1346 
130 1 60.362 24.638 13.9208 
131 1 62.1482 22.8518 12.1346 
132 1 63.9344 24.638 13.9208 
133 1 65.7206 22.8518 12.1346 
134 1 67.5068 24.638 13.9208 
135 1 69.293 22.8518 12.1346 
136 1 71.0792 24.638 13.9208 
137 1 12.1346 26.4242 12.1346 
138 1 13.9208 28.2104 13.9208 
139 1 15.707 26.4242 12.1346 
140 1 17.4932 28.2104 13.9208 
141 1 19.2794 26.4242 12.1346 
142 1 21.0656 28.2104 13.9208 
143 1 22.8518 26.4242 12.1346 
144 1 24.638 28.2104 13.9208 
145 1 26.4242 26.4242 12.1346 
146 1 28.2104 28.2104 13.9208 
147 1 29.9966 26.4242 12.1346 
148 1 31.7828 28.2104 13.9208 
149 1 33.569 26.4242 12.1346 
150 1 35.3552 28.2104 13.9208 
151 1 37.1414 26.4242 12.1346 
152 1 38.9276 28.2104 13.9208 
153 1 40.7138 26.4242 12.1346 
154 1 42.5 28.2104 13.9208 
155 1 44.2862 26.4242 12.1346 
156 1 46.0724 28.2104 13.9208 
157 1 47.8586 26.4242 12.1346 
158 1 49.6448 28.2104 13.9208 
159 1 51.431 26.4242 12.1346 
160 1 53.2172 28.2104 13.9208 
161 1 55.0034 26.4242 12.1346 
162 1 56.7896 28.2104 13.9208 
163 1 58.5758 26.4242 12.1346 
164 1 60.362 28.2104 13.9208 
165 1 62.1482 26.4242 12.1346 
166 1 63.9344 28.2104 13.9208 
167 1 65.7206 26.4242 12.1346 
168 1 67.5068 28.2104 13.9208 
169 1 69.293 26.4242 12.1346 
170 1 71.0792 28.2104 13.9208 
171 1 12.1346 29.9966 12.1346 
172 1 13.9208 31.7828 13.9208 
173 1 15.707 29.9966 12.1346 
174 1 17.4932 31.7828 13.9208 
175 1 19.2794 29.9966 12.1346 
176 1 21.0656 31.7828 13.9208 
177 1 22.8518 29.9966 12.1346 
178 1 24.638 31.7828 13.9208 
179 1 26.4242 29.9966 12.1346 
180 1 28.2104 31.7828 13.9208 
181 1 29.9966 29.9966 12.1346 
182 1 31.7828 31.7828 13.9208 
183 1 33.569 29.9966 12.1346 
184 1 35.3552 31.7828 13.9208 
185 1 37.1414 29.9966 12.1346 
186 1 38.9276 31.7828 13.9208 
187 1 40.7138 29.9966 12.1346 
188 1 42.5 31.7828 13.9208 
189 1 44.2862 29.9966 12.1346 
190 1 46.0724 31.7828 13.9208 
191 1 47.8586 29.9966 12.1346 
192 1 49.6448 31.7828 13.9208 
193 1 51.431 29.9966 12.1346 
194 1 53.2172 31.7828 13.9208 
195 1 55.0034 29.9966 12.1346 
196 1 56.7896 31.7828 13.9208 
197 1 58.5758 29.9966 12.1346 
198 1 60.362 31.7828 13.9208 
199 1 62.1482 29.9966 12.1346 
200 1 63.9344 31.7828 13.9208 
201 1 65.7206 29.9966 12.1346 
202 1 67.5068 31.7828 13.9208 
203 1 69.293 29.9966 12.1346 
204 1 71.0792 31.7828 13.9208 
205 1 12.1346 33.569 12.1346 
206 1 13.9208 35.3552 13.9208 
207 1 15.707 33.569 12.1346 
208 1 17.4932 35.3552 13.9208 
209 1 19.2794 33.569 12.1346 
210 1 21.0656 35.3552 13.9208 
211 1 22.8518 33.569 12.1346 
212 1 24.638 35.3552 13.9208 
213 1 26.4242 33.569 12.1346 
214 1 28.2104 35.3552 13.9208 
215 1 29.9966 33.569 12.1346 
216 1 31.7828 35.3552 13.9208 
217 1 33.569 33.569 12.1346 
218 1 35.3552 35.3552 13.9208 
219 1 37.1414 33.569 12.1346 
220 1 38.9276 35.3552 13.9208 
221 1 40.7138 33.569 12.1346 
222 1 42.5 35.3552 13.9208 
223 1 44.2862 33.569 12.1346 
224 1 46.0724 35.3552 13.9208 
225 1 47.8586 33.569 12.1346 
226 1 49.6448 35.3552 13.9208 
227 1 51.431 33.569 12.1346 
228 1 53.2172 35.3552 13.9208 
229 1 55.0034 33.569 12.1346 
230 1 56.7896 35.3552 13.9208 
231 1 58.5758 33.569 12.1346 
232 1 60.362 35.3552 13.9208 
233 1 62.1482 33.569 12.1346 
234 1 63.9344 35.3552 13.9208 
235 1 65.7206 33.569 12.1346 
236 1 67.5068 35.3552 13.9208 
237 1 69.293 33.569 12.1346 
238 1 71.0792 35.3552 13.9208 
239 1 12.1346 37.1414 12.1346 
240 1 13.9208 38.9276 13.9208 
241 1 15.707 37.1414 12.1346 
242 1 17.4932 38.9276 13.9208 
243 1 19.2794 37.1414 12.1346 
244 1 21.0656 38.9276 13.9208 
245 1 22.8518 37.1414 12.1346 
246 1 24.638 38.9276 13.9208 
247 1 26.4242 37.1414 12.1346 
248 1 28.2104 38.9276 13.9208 
249 1 29.9966 37.1414 12.1346 
250 1 31.7828 38.9276 13.9208 
251 1 33.569 37.1414 12.1346 
252 1 35.3552 38.9276 13.9208 
253 1 37.1414 37.1414 12.1346 
254 1 38.9276 38.9276 13.9208 
255 1 40.7138 37.1414 12.1346 
256 1 42.5 38.9276 13.9208 
257 1 44.2862 37.1414 12.1346 
258 1 46.0724 38.9276 13.9208 
259 1 47.8586 37.1414 12.1346 
260 1 49.6448 38.9276 13.9208 
261 1 51.431 37.1414 12.1346 
262 1 53.2172 38.9276 13.9208 
263 1 55.0034 37.1414 12.1346 
264 1 56.7896 38.9276 13.9208 
265 1 58.5758 37.1414 12.1346 
266 1 60.362 38.9276 13.9208 
267 1 62.1482 37.1414 12.1346 
268 1 63.9344 38.9276 13.9208 
269 1 65.7206 37.1414 12.1346 
270 1 67.5068 38.9276 13.9208 
271 1 69.293 37.1414 12.1346 
272 1 71.0792 38.9276 13.9208 
273 1 12.1346 40.7138 12.1346 
274 1 13.9208 42.5 13.9208 
275 1 15.707 40.7138 12.1346 
276 1 17.4932 42.5 13.9208 
277 1 19.2794 40.7138 12.1346 
278 1 21.0656 42.5 13.9208 
279 1 22.8518 40.7138 12.1346 
280 1 24.638 42.5 13.9208 
281 1 26.4242 40.7138 12.1346 
282 1 28.2104 42.5 13.9208 
283 1 29.9966 40.7138 12.1346 
284 1 31.7828 42.5 13.9208 
285 1 33.569 40.7138 12.1346 
286 1 35.3552 42.5 13.9208 
287 1 37.1414 40.7138 12.1346 
288 1 38.9276 42.5 13.9208 
289 1 40.7138 40.7138 12.1346 
290 1 42.5 42.5 13.9208 
291 1 44.2862 40.7138 12.1346 
292 1 46.0724 42.5 13.9208 
293 1 47.8586 40.7138 12.1346 
294 1 49.6448 42.5 13.9208 
295 1 51.431 40.7138 12.1346 
296 1 53.2172 42.5 13.9208 
297 1 55.0034 40.7138 12.1346 
298 1 56.7896 42.5 13.9208 
299 1 58.5758 40.7138 12.1346 
300 1 60.362 42.5 13.9208 
301 1 62.1482 40.7138 12.1346 
302 1 63.9344 42.5 13.9208 
303 1 65.7206 40.7138 12.1346 
304 1 67.5068 42.5 13.9208 
305 1 69.293 40.7138 12.1346 
306 1 71.0792 42.5 13.9208 
307 1 12.1346 44.2862 12.1346 
308 1 13.9208 46.0724 13.9208 
309 1 15.707 44.2862 12.1346 
310 1 17.4932 46.0724 13.9208 
311 1 19.2794 44.2862 12.1346 
312 1 21.0656 46.0724 13.9208 
313 1 22.8518 44.2862 12.1346 
314 1 24.638 46.0724 13.9208 
315 1 26.4242 44.2862 12.1346 
316 1 28.2104 46.0724 13.9208 
317 1 29.9966 44.2862 12.1346 
318 1 31.7828 46.0724 13.9208 
319 1 33.569 44.2862 12.1346 
320 1 35.3552 46.0724 13.9208 
321 1 37.1414 44.2862 12.1346 
322 1 38.9276 46.0724 13.9208 
323 1 40.7138 44.2862 12.1346 
324 1 42.5 46.0724 13.9208 
325 1 44.2862 44.2862 12.1346 
326 1 46.0724 46.0724 13.9208 
327 1 47.8586 44.2862 12.1346 
328 1 49.6448 46.0724 13.9208 
329 1 51.431 44.2862 12.1346 
330 1 53.2172 46.0724 13.9208 
331 1 55.0034 44.2862 12.1346 
332 1 56.7896 46.0724 13.9208 
333 1 58.5758 44.2862 12.1346 
334 1 60.362 46.0724 13.9208 
335 1 62.1482 44.2862 12.1346 
336 1 63.9344 46.0724 13.9208 
337 1 65.7206 44.2862 12.1346 
338 1 67.5068 46.0724 13.9208 
339 1 69.293 44.2862 12.1346 
340 1 71.0792 46.0724 13.9208 
341 1 12.1346 47.8586 12.1346 
342 1 13.9208 49.6448 13.9208 
343 1 15.707 47.8586 12.1346 
344 1 17.4932 49.6448 13.9208 
345 1 19.2794 47.8586 12.1346 
346 1 21.0656 49.6448 13.9208 
347 1 22.8518 47.8586 12.1346 
348 1 24.638 49.6448 13.9208 
349 1 26.4242 47.8586 12.1346 
350 1 28.2104 49.6448 13.9208 
351 1 29.9966 47.8586 12.1346 
352 1 31.7828 49.6448 13.9208 
353 1 33.569 47.8586 12.1346 
354 1 35.3552 49.6448 13.9208 
355 1 37.1414 47.8586 12.1346 
356 1 38.9276 49.6448 13.9208 
357 1 40.7138 47.8586 12.1346 
358 1 42.5 49.6448 13.9208 
359 1 44.2862 47.8586 12.1346 
360 1 46.0724 49.6448 13.9208 
361 1 47.8586 47.8586 12.1346 
362 1 49.6448 49.6448 13.9208 
363 1 51.431 47.8586 12.1346 
364 1 53.2172 49.6448 13.9208 
365 1 55.0034 47.8586 12.1346 
366 1 56.7896 49.6448 13.9208 
367 1 58.5758 47.8586 12.1346 
368 1 60.362 49.6448 13.9208 
369 1 62.1482 47.8586 12.1346 
370 1 63.9344 49.6448 13.9208 
371 1 65.7206 47.8586 12.1346 
372 1 67.5068 49.6448 13.9208 
373 1 69.293 47.8586 12.1346 
374 1 71.0792 49.6448 13.9208 
375 1 12.1346 51.431 12.1346 
376 1 13.9208 53.2172 13.9208 
377 1 15.707 51.431 12.1346 
378 1 17.4932 53.2172 13.9208 
379 1 19.2794 51.431 12.1346 
380 1 21.0656 53.2172 13.9208 
381 1 22.8518 51.431 12.1346 
382 1 24.638 53.2172 13.9208 
383 1 26.4242 51.431 12.1346 
384 1 28.2104 53.2172 13.9208 
385 1 29.9966 51.431 12.1346 
386 1 31.7828 53.2172 13.9208 
387 1 33.569 51.431 12.1346 
388 1 35.3552 53.2172 13.9208 
389 1 37.1414 51.431 12.1346 
390 1 38.9276 53.2172 13.9208 
391 1 40.7138 51.431 12.1346 
392 1 42.5 53.2172 13.9208 
393 1 44.2862 51.431 12.1346 
394 1 46.0724 53.2172 13.9208 
395 1 47.8586 51.431 12.1346 
396 1 49.6448 53.2172 13.9208 
397 1 51.431 51.431 12.1346 
398 1 53.2172 53.2172 13.9208 
399 1 55.0034 51.431 12.1346 
400 1 56.7896 53.2172 13.9208 
401 1 58.5758 51.431 12.1346 
402 1 60.362 53.2172 13.9208 
403 1 62.1482 51.431 12.1346 
404 1 63.9344 53.2172 13.9208 
405 1 65.7206 51.431 12.1346 
406 1 67.5068 53.2172 13.9208 
407 1 69.293 51.431 12.1346 
408 1 71.0792 53.2172 13.9208 
409 1 12.1346 55.0034 12.1346 
410 1 13.9208 56.7896 13.9208 
411 1 15.707 55.0034 12.1346 
412 1 17.4932 56.7896 13.9208 
413 1 19.2794 55.0034 12.1346 
414 1 21.0656 56.7896 13.9208 
415 1 22.8518 55.0034 12.1346 
416 1 24.638 56.7896 13.9208 
417 1 26.4242 55.0034 12.1346 
418 1 28.2104 56.7896 13.9208 
419 1 29.9966 55.0034 12.1346 
420 1 31.7828 56.7896 13.9208 
421 1 33.569 55.0034 12.1346 
422 1 35.3552 56.7896 13.9208 
423 1 37.1414 55.0034 12.1346 
424 1 38.9276 56.7896 13.9208 
425 1 40.7138 55.0034 12.1346 
426 1 42.5 56.7896 13.9208 
427 1 44.2862 55.0034 12.1346 
428 1 46.0724 56.7896 13.9208 
429 1 47.8586 55.0034 12.1346 
430 1 49.6448 56.7896 13.9208 
431 1 51.431 55.0034 12.1346 
432 1 53.2172 56.7896 13.9208 
433 1 55.0034 55.0034 12.1346 
434 1 56.7896 56.7896 13.9208 
435 1 58.5758 55.0034 12.1346 
436 1 60.362 56.7896 13.9208 
437 1 62.1482 55.0034 12.1346 
438 1 63.9344 56.7896 13.9208 
439 1 65.7206 55.0034 12.1346 
440 1 67.5068 56.7896 13.9208 
441 1 69.293 55.0034 12.1346 
442 1 71.0792 56.7896 13.9208 
443 1 12.1346 58.5758 12.1346 
444 1 13.9208 60.362 13.9208 
445 1 15.707 58.5758 12.1346 
446 1 17.4932 60.362 13.9208 
447 1 19.2794 58.5758 12.1346 
448 1 21.0656 60.362 13.9208 
449 1 22.8518 58.5758 12.1346 
450 1 24.638 60.362 13.9208 
451 1 26.4242 58.5758 12.1346 
452 1 28.2104 60.362 13.9208 
453 1 29.9966 58.5758 12.1346 
454 1 31.7828 60.362 13.9208 
455 1 33.569 58.5758 12.1346 
456 1 35.3552 60.362 13.9208 
457 1 37.1414 58.5758 12.1346 
458 1 38.9276 60.362 13.9208 
459 1 40.7138 58.5758 12.1346 
460 1 42.5 60.362 13.9208 
461 1 44.2862 58.5758 12.1346 
462 1 46.0724 60.362 13.9208 
463 1 47.8586 58.5758 12.1346 
464 1 49.6448 60.362 13.9208 
465 1 51.431 58.5758 12.1346 
466 1 53.2172 60.362 13.9208 
467 1 55.0034 58.5758 12.1346 
468 1 56.7896 60.362 13.9208 
469 1 58.5758 58.5758 12.1346 
470 1 60.362 60.362 13.9208 
471 1 62.1482 58.5758 12.1346 
472 1 63.9344 60.362 13.9208 
473 1 65.7206 58.5758 12.1346 
474 1 67.5068 60.362 13.9208 
475 1 69.293 58.5758 12.1346 
476 1 71.0792 60.362 13.9208 
477 1 12.1346 62.1482 12.1346 
478 1 13.9208 63.9344 13.9208 
479 1 15.707 62.1482 12.1346 
480 1 17.4932 63.9344 13.9208 
481 1 19.2794 62.1482 12.1346 
482 1 21.0656 63.9344 13.9208 
483 1 22.8518 62.1482 12.1346 
484 1 24.638 63.9344 13.9208 
485 1 26.4242 62.1482 12.1346 
486 1 28.2104 63.9344 13.9208 
487 1 29.9966 62.1482 12.1346 
488 1 31.7828 63.9344 13.9208 
489 1 33.569 62.1482 12.1346 
490 1 35.3552 63.9344 13.9208 
491 1 37.1414 62.1482 12.1346 
492 1 38.9276 63.9344 13.9208 
493 1 40.7138 62.1482 12.1346 
494 1 42.5 63.9344 13.9208 
495 1 44.2862 62.1482 12.1346 
496 1 46.0724 63.9344 13.9208 
497 1 47.8586 62.1482 12.1346 
498 1 49.6448 63.9344 13.9208 
499 1 51.431 62.1482 12.1346 
500 1 53.2172 63.9344 13.9208 
501 1 55.0034 62.1482 12.1346 
502 1 56.7896 63.9344 13.9208 
503 1 58.5758 62.1482 12.1346 
504 1 60.362 63.9344 13.9208 
505 1 62.1482 62.1482 12.1346 
506 1 63.9344 63.9344 13.9208 
507 1 65.7206 62.1482 12.1346 
508 1 67.5068 63.9344 13.9208 
509 1 69.293 62.1482 12.1346 
510 1 71.0792 63.9344 13.9208 
511 1 12.1346 65.7206 12.1346 
512 1 13.9208 67.5068 13.9208 
513 1 15.707 65.7206 12.1346 
514 1 17.4932 67.5068 13.9208 
515 1 19.2794 65.7206 12.1346 
516 1 21.0656 67.5068 13.9208 
517 1 22.8518 65.7206 12.1346 
518 1 24.638 67.5068 13.9208 
519 1 26.4242 65.7206 12.1346 
520 1 28.2104 67.5068 13.9208 
521 1 29.9966 65.7206 12.1346 
522 1 31.7828 67.5068 13.9208 
523 1 33.569 65.7206 12.1346 
524 1 35.3552 67.5068 13.9208 
525 1 37.1414 65.7206 12.1346 
526 1 38.9276 67.5068 13.9208 
527 1 40.7138 65.7206 12.1346 
528 1 42.5 67.5068 13.9208 
529 1 44.2862 65.7206 12.1346 
530 1 46.0724 67.5068 13.9208 
531 1 47.8586 65.7206 12.1346 
532 1 49.6448 67.5068 13.9208 
533 1 51.431 65.7206 12.1346 
534 1 53.2172 67.5068 13.9208 
535 1 55.0034 65.7206 12.1346 
536 1 56.7896 67.5068 13.9208 
537 1 58.5758 65.7206 12.1346 
538 1 60.362 67.5068 13.9208 
539 1 62.1482 65.7206 12.1346 
540 1 63.9344 67.5068 13.9208 
541 1 65.7206 65.7206 12.1346 
542 1 67.5068 67.5068 13.9208 
543 1 69.293 65.7206 12.1346 
544 1 71.0792 67.5068 13.9208 
545 1 12.1346 69.293 12.1346 
546 1 13.9208 71.0792 13.9208 
547 1 15.707 69.293 12.1346 
548 1 17.4932 71.0792 13.9208 
549 1 19.2794 69.293 12.1346 
550 1 21.0656 71.0792 13.9208 
551 1 22.8518 69.293 12.1346 
552 1 24.638 71.0792 13.9208 
553 1 26.4242 69.293 12.1346 
554 1 28.2104 71.0792 13.9208 
555 1 29.9966 69.293 12.1346 
556 1 31.7828 71.0792 13.9208 
557 1 33.569 69.293 12.1346 
558 1 35.3552 71.0792 13.9208 
559 1 37.1414 69.293 12.1346 
560 1 38.9276 71.0792 13.9208 
561 1 40.7138 69.293 12.1346 
562 1 42.5 71.0792 13.9208 
563 1 44.2862 69.293 12.1346 
564 1 46.0724 71.0792 13.9208 
565 1 47.8586 69.293 12.1346 
566 1 49.6448 71.0792 13.9208 
567 1 51.431 69.293 12.1346 
568 1 53.2172 71.0792 13.9208 
569 1 55.0034 69.293 12.1346 
570 1 56.7896 71.0792 13.9208 
571 1 58.5758 69.293 12.1346 
572 1 60.362 71.0792 13.9208 
573 1 62.1482 69.293 12.1346 
574 1 63.9344 71.0792 13.9208 
575 1 65.7206 69.293 12.1346 
576 1 67.5068 71.0792 13.9208 
577 1 69.293 69.293 12.1346 
578 1 71.0792 71.0792 13.9208 
579 1 12.1346 12.1346 15.707 
580 1 13.9208 13.9208 17.4932 
581 1 15.707 12.1346 15.707 
582 1 17.4932 13.9208 17.4932 
583 1 19.2794 12.1346 15.707 
584 1 21.0656 13.9208 17.4932 
585 1 22.8518 12.1346 15.707 
586 1 24.638 13.9208 17.4932 
587 1 26.4242 12.1346 15.707 
588 1 28.2104 13.9208 17.4932 
589 1 29.9966 12.1346 15.707 
590 1 31.7828 13.9208 17.4932 
591 1 33.569 12.1346 15.707 
592 1 35.3552 13.9208 17.4932 
593 1 37.1414 12.1346 15.707 
594 1 38.9276 13.9208 17.4932 
595 1 40.7138 12.1346 15.707 
596 1 42.5 13.9208 17.4932 
597 1 44.2862 12.1346 15.707 
598 1 46.0724 13.9208 17.4932 
599 1 47.8586 12.1346 15.707 
600 1 49.6448 13.9208 17.4932 
601 1 51.431 12.1346 15.707 
602 1 53.2172 13.9208 17.4932 
603 1 55.0034 12.1346 15.707 
604 1 56.7896 13.9208 17.4932 
605 1 58.5758 12.1346 15.707 
606 1 60.362 13.9208 17.4932 
607 1 62.1482 12.1346 15.707 
608 1 63.9344 13.9208 17.4932 
609 1 65.7206 12.1346 15.707 
610 1 67.5068 13.9208 17.4932 
611 1 69.293 12.1346 15.707 
612 1 71.0792 13.9208 17.4932 
613 1 12.1346 15.707 15.707 
614 1 13.9208 17.4932 17.4932 
615 1 15.707 15.707 15.707 
616 1 17.4932 17.4932 17.4932 
617 1 19.2794 15.707 15.707 
618 1 21.0656 17.4932 17.4932 
619 1 22.8518 15.707 15.707 
620 1 24.638 17.4932 17.4932 
621 1 26.4242 15.707 15.707 
622 1 28.2104 17.4932 17.4932 
623 1 29.9966 15.707 15.707 
624 1 31.7828 17.4932 17.4932 
625 1 33.569 15.707 15.707 
626 1 35.3552 17.4932 17.4932 
627 1 37.1414 15.707 15.707 
628 1 38.9276 17.4932 17.4932 
629 1 40.7138 15.707 15.707 
630 1 42.5 17.4932 17.4932 
631 1 44.2862 15.707 15.707 
632 1 46.0724 17.4932 17.4932 
633 1 47.8586 15.707 15.707 
634 1 49.6448 17.4932 17.4932 
635 1 51.431 15.707 15.707 
636 1 53.2172 17.4932 17.4932 
637 1 55.0034 15.707 15.707 
638 1 56.7896 17.4932 17.4932 
639 1 58.5758 15.707 15.707 
640 1 60.362 17.4932 17.4932 
641 1 62.1482 15.707 15.707 
642 1 63.9344 17.4932 17.4932 
643 1 65.7206 15.707 15.707 
644 1 67.5068 17.4932 17.4932 
645 1 69.293 15.707 15.707 
646 1 71.0792 17.4932 17.4932 
647 1 12.1346 19.2794 15.707 
648 1 13.9208 21.0656 17.4932 
649 1 15.707 19.2794 15.707 
650 1 17.4932 21.0656 17.4932 
651 1 19.2794 19.2794 15.707 
652 1 21.0656 21.0656 17.4932 
653 1 22.8518 19.2794 15.707 
654 1 24.638 21.0656 17.4932 
655 1 26.4242 19.2794 15.707 
656 1 28.2104 21.0656 17.4932 
657 1 29.9966 19.2794 15.707 
658 1 31.7828 21.0656 17.4932 
659 1 33.569 19.2794 15.707 
660 1 35.3552 21.0656 17.4932 
661 1 37.1414 19.2794 15.707 
662 1 38.9276 21.0656 17.4932 
663 1 40.7138 19.2794 15.707 
664 1 42.5 21.0656 17.4932 
665 1 44.2862 19.2794 15.707 
666 1 46.0724 21.0656 17.4932 
667 1 47.8586 19.2794 15.707 
668 1 49.6448 21.0656 17.4932 
669 1 51.431 19.2794 15.707 
670 1 53.2172 21.0656 17.4932 
671 1 55.0034 19.2794 15.707 
672 1 56.7896 21.0656 17.4932 
673 1 58.5758 19.2794 15.707 
674 1 60.362 21.0656 17.4932 
675 1 62.1482 19.2794 15.707 
676 1 63.9344 21.0656 17.4932 
677 1 65.7206 19.2794 15.707 
678 1 67.5068 21.0656 17.4932 
679 1 69.293 19.2794 15.707 
680 1 71.0792 21.0656 17.4932 
681 1 12.1346 22.8518 15.707 
682 1 13.9208 24.638 17.4932 
683 1 15.707 22.8518 15.707 
684 1 17.4932 24.638 17.4932 
685 1 19.2794 22.8518 15.707 
686 1 21.0656 24.638 17.4932 
687 1 22.8518 22.8518 15.707 
688 1 24.638 24.638 17.4932 
689 1 26.4242 22.8518 15.707 
690 1 28.2104 24.638 17.4932 
691 1 29.9966 22.8518 15.707 
692 1 31.7828 24.638 17.4932 
693 1 33.569 22.8518 15.707 
694 1 35.3552 24.638 17.4932 
695 1 37.1414 22.8518 15.707 
696 1 38.9276 24.638 17.4932 
697 1 40.7138 22.8518 15.707 
698 1 42.5 24.638 17.4932 
699 1 44.2862 22.8518 15.707 
700 1 46.0724 24.638 17.4932 
701 1 47.8586 22.8518 15.707 
702 1 49.6448 24.638 17.4932 
703 1 51.431 22.8518 15.707 
704 1 53.2172 24.638 17.4932 
705 1 55.0034 22.8518 15.707 
706 1 56.7896 24.638 17.4932 
707 1 58.5758 22.8518 15.707 
708 1 60.362 24.638 17.4932 
709 1 62.1482 22.8518 15.707 
710 1 63.9344 24.638 17.4932 
711 1 65.7206 22.8518 15.707 
712 1 67.5068 24.638 17.4932 
713 1 69.293 22.8518 15.707 
714 1 71.0792 24.638 17.4932 
715 1 12.1346 26.4242 15.707 
716 1 13.9208 28.2104 17.4932 
717 1 15.707 26.4242 15.707 
718 1 17.4932 28.2104 17.4932 
719 1 19.2794 26.4242 15.707 
720 1 21.0656 28.2104 17.4932 
721 1 22.8518 26.4242 15.707 
722 1 24.638 28.2104 17.4932 
723 1 26.4242 26.4242 15.707 
724 1 28.2104 28.2104 17.4932 
725 1 29.9966 26.4242 15.707 
726 1 31.7828 28.2104 17.4932 
727 1 33.569 26.4242 15.707 
728 1 35.3552 28.2104 17.4932 
729 1 37.1414 26.4242 15.707 
730 1 38.9276 28.2104 17.4932 
731 1 40.7138 26.4242 15.707 
732 1 42.5 28.2104 17.4932 
733 1 44.2862 26.4242 15.707 
734 1 46.0724 28.2104 17.4932 
735 1 47.8586 26.4242 15.707 
736 1 49.6448 28.2104 17.4932 
737 1 51.431 26.4242 15.707 
738 1 53.2172 28.2104 17.4932 
739 1 55.0034 26.4242 15.707 
740 1 56.7896 28.2104 17.4932 
741 1 58.5758 26.4242 15.707 
742 1 60.362 28.2104 17.4932 
743 1 62.1482 26.4242 15.707 
744 1 63.9344 28.2104 17.4932 
745 1 65.7206 26.4242 15.707 
746 1 67.5068 28.2104 17.4932 
747 1 69.293 26.4242 15.707 
748 1 71.0792 28.2104 17.4932 
749 1 12.1346 29.9966 15.707 
750 1 13.9208 31.7828 17.4932 
751 1 15.707 29.9966 15.707 
752 1 17.4932 31.7828 17.4932 
753 1 19.2794 29.9966 15.707 
754 1 21.0656 31.7828 17.4932 
755 1 22.8518 29.9966 15.707 
756 1 24.638 31.7828 17.4932 
757 1 26.4242 29.9966 15.707 
758 1 28.2104 31.7828 17.4932 
759 1 29.9966 29.9966 15.707 
760 1 31.7828 31.7828 17.4932 
761 1 33.569 29.9966 15.707 
762 1 35.3552 31.7828 17.4932 
763 1 37.1414 29.9966 15.707 
764 1 38.9276 31.7828 17.4932 
765 1 40.7138 29.9966 15.707 
766 1 42.5 31.7828 17.4932 
767 1 44.2862 29.9966 15.707 
768 1 46.0724 31.7828 17.4932 
769 1 47.8586 29.9966 15.707 
770 1 49.6448 31.7828 17.4932 
771 1 51.431 29.9966 15.707 
772 1 53.2172 31.7828 17.4932 
773 1 55.0034 29.9966 15.707 
774 1 56.7896 31.7828 17.4932 
775 1 58.5758 29.9966 15.707 
776 1 60.362 31.7828 17.4932 
777 1 62.1482 29.9966 15.707 
778 1 63.9344 31.7828 17.4932 
779 1 65.7206 29.9966 15.707 
780 1 67.5068 31.7828 17.4932 
781 1 69.293 29.9966 15.707 
782 1 71.0792 31.7828 17.4932 
783 1 12.1346 33.569 15.707 
784 1 13.9208 35.3552 17.4932 
785 1 15.707 33.569 15.707 
786 1 17.4932 35.3552 17.4932 
787 1 19.2794 33.569 15.707 
788 1 21.0656 35.3552 17.4932 
789 1 22.8518 33.569 15.707 
790 1 24.638 35.3552 17.4932 
791 1 26.4242 33.569 15.707 
792 1 28.2104 35.3552 17.4932 
793 1 29.9966 33.569 15.707 
794 1 31.7828 35.3552 17.4932 
795 1 33.569 33.569 15.707 
796 1 35.3552 35.3552 17.4932 
797 1 37.1414 33.569 15.707 
798 1 38.9276 35.3552 17.4932 
799 1 40.7138 33.569 15.707 
800 1 42.5 35.3552 17.4932 
801 1 44.2862 33.569 15.707 
802 1 46.0724 35.3552 17.4932 
803 1 47.8586 33.569 15.707 
804 1 49.6448 35.3552 17.4932 
805 1 51.431 33.569 15.707 
806 1 53.2172 35.3552 17.4932 
807 1 55.0034 33.569 15.707 
808 1 56.7896 35.3552 17.4932 
809 1 58.5758 33.569 15.707 
810 1 60.362 35.3552 17.4932 
811 1 62.1482 33.569 15.707 
812 1 63.9344 35.3552 17.4932 
813 1 65.7206 33.569 15.707 
814 1 67.5068 35.3552 17.4932 
815 1 69.293 33.569 15.707 
816 1 71.0792 35.3552 17.4932 
817 1 12.1346 37.1414 15.707 
818 1 13.9208 38.9276 17.4932 
819 1 15.707 37.1414 15.707 
820 1 17.4932 38.9276 17.4932 
821 1 19.2794 37.1414 15.707 
822 1 21.0656 38.9276 17.4932 
823 1 22.8518 37.1414 15.707 
824 1 24.638 38.9276 17.4932 
825 1 26.4242 37.1414 15.707 
826 1 28.2104 38.9276 17.4932 
827 1 29.9966 37.1414 15.707 
828 1 31.7828 38.9276 17.4932 
829 1 33.569 37.1414 15.707 
830 1 35.3552 38.9276 17.4932 
831 1 37.1414 37.1414 15.707 
832 1 38.9276 38.9276 17.4932 
833 1 40.7138 37.1414 15.707 
834 1 42.5 38.9276 17.4932 
835 1 44.2862 37.1414 15.707 
836 1 46.0724 38.9276 17.4932 
837 1 47.8586 37.1414 15.707 
838 1 49.6448 38.9276 17.4932 
839 1 51.431 37.1414 15.707 
840 1 53.2172 38.9276 17.4932 
841 1 55.0034 37.1414 15.707 
842 1 56.7896 38.9276 17.4932 
843 1 58.5758 37.1414 15.707 
844 1 60.362 38.9276 17.4932 
845 1 62.1482 37.1414 15.707 
846 1 63.9344 38.9276 17.4932 
847 1 65.7206 37.1414 15.707 
848 1 67.5068 38.9276 17.4932 
849 1 69.293 37.1414 15.707 
850 1 71.0792 38.9276 17.4932 
851 1 12.1346 40.7138 15.707 
852 1 13.9208 42.5 17.4932 
853 1 15.707 40.7138 15.707 
854 1 17.4932 42.5 17.4932 
855 1 19.2794 40.7138 15.707 
856 1 21.0656 42.5 17.4932 
857 1 22.8518 40.7138 15.707 
858 1 24.638 42.5 17.4932 
859 1 26.4242 40.7138 15.707 
860 1 28.2104 42.5 17.4932 
861 1 29.9966 40.7138 15.707 
862 1 31.7828 42.5 17.4932 
863 1 33.569 40.7138 15.707 
864 1 35.3552 42.5 17.4932 
865 1 37.1414 40.7138 15.707 
866 1 38.9276 42.5 17.4932 
867 1 40.7138 40.7138 15.707 
868 1 42.5 42.5 17.4932 
869 1 44.2862 40.7138 15.707 
870 1 46.0724 42.5 17.4932 
871 1 47.8586 40.7138 15.707 
872 1 49.6448 42.5 17.4932 
873 1 51.431 40.7138 15.707 
874 1 53.2172 42.5 17.4932 
875 1 55.0034 40.7138 15.707 
876 1 56.7896 42.5 17.4932 
877 1 58.5758 40.7138 15.707 
878 1 60.362 42.5 17.4932 
879 1 62.1482 40.7138 15.707 
880 1 63.9344 42.5 17.4932 
881 1 65.7206 40.7138 15.707 
882 1 67.5068 42.5 17.4932 
883 1 69.293 40.7138 15.707 
884 1 71.0792 42.5 17.4932 
885 1 12.1346 44.2862 15.707 
886 1 13.9208 46.0724 17.4932 
887 1 15.707 44.2862 15.707 
888 1 17.4932 46.0724 17.4932 
889 1 19.2794 44.2862 15.707 
890 1 21.0656 46.0724 17.4932 
891 1 22.8518 44.2862 15.707 
892 1 24.638 46.0724 17.4932 
893 1 26.4242 44.2862 15.707 
894 1 28.2104 46.0724 17.4932 
895 1 29.9966 44.2862 15.707 
896 1 31.7828 46.0724 17.4932 
897 1 33.569 44.2862 15.707 
898 1 35.3552 46.0724 17.4932 
899 1 37.1414 44.2862 15.707 
900 1 38.9276 46.0724 17.4932 
901 1 40.7138 44.2862 15.707 
902 1 42.5 46.0724 17.4932 
903 1 44.2862 44.2862 15.707 
904 1 46.0724 46.0724 17.4932 
905 1 47.8586 44.2862 15.707 
906 1 49.6448 46.0724 17.4932 
907 1 51.431 44.2862 15.707 
908 1 53.2172 46.0724 17.4932 
909 1 55.0034 44.2862 15.707 
910 1 56.7896 46.0724 17.4932 
911 1 58.5758 44.2862 15.707 
912 1 60.362 46.0724 17.4932 
913 1 62.1482 44.2862 15.707 
914 1 63.9344 46.0724 17.4932 
915 1 65.7206 44.2862 15.707 
916 1 67.5068 46.0724 17.4932 
917 1 69.293 44.2862 15.707 
918 1 71.0792 46.0724 17.4932 
919 1 12.1346 47.8586 15.707 
920 1 13.9208 49.6448 17.4932 
921 1 15.707 47.8586 15.707 
922 1 17.4932 49.6448 17.4932 
923 1 19.2794 47.8586 15.707 
924 1 21.0656 49.6448 17.4932 
925 1 22.8518 47.8586 15.707 
926 1 24.638 49.6448 17.4932 
927 1 26.4242 47.8586 15.707 
928 1 28.2104 49.6448 17.4932 
929 1 29.9966 47.8586 15.707 
930 1 31.7828 49.6448 17.4932 
931 1 33.569 47.8586 15.707 
932 1 35.3552 49.6448 17.4932 
933 1 37.1414 47.8586 15.707 
934 1 38.9276 49.6448 17.4932 
935 1 40.7138 47.8586 15.707 
936 1 42.5 49.6448 17.4932 
937 1 44.2862 47.8586 15.707 
938 1 46.0724 49.6448 17.4932 
939 1 47.8586 47.8586 15.707 
940 1 49.6448 49.6448 17.4932 
941 1 51.431 47.8586 15.707 
942 1 53.2172 49.6448 17.4932 
943 1 55.0034 47.8586 15.707 
944 1 56.7896 49.6448 17.4932 
945 1 58.5758 47.8586 15.707 
946 1 60.362 49.6448 17.4932 
947 1 62.1482 47.8586 15.707 
948 1 63.9344 49.6448 17.4932 
949 1 65.7206 47.8586 15.707 
950 1 67.5068 49.6448 17.4932 
951 1 69.293 47.8586 15.707 
952 1 71.0792 49.6448 17.4932 
953 1 12.1346 51.431 15.707 
954 1 13.9208 53.2172 17.4932 
955 1 15.707 51.431 15.707 
956 1 17.4932 53.2172 17.4932 
957 1 19.2794 51.431 15.707 
958 1 21.0656 53.2172 17.4932 
959 1 22.8518 51.431 15.707 
960 1 24.638 53.2172 17.4932 
961 1 26.4242 51.431 15.707 
962 1 28.2104 53.2172 17.4932 
963 1 29.9966 51.431 15.707 
964 1 31.7828 53.2172 17.4932 
965 1 33.569 51.431 15.707 
966 1 35.3552 53.2172 17.4932 
967 1 37.1414 51.431 15.707 
968 1 38.9276 53.2172 17.4932 
969 1 40.7138 51.431 15.707 
970 1 42.5 53.2172 17.4932 
971 1 44.2862 51.431 15.707 
972 1 46.0724 53.2172 17.4932 
973 1 47.8586 51.431 15.707 
974 1 49.6448 53.2172 17.4932 
975 1 51.431 51.431 15.707 
976 1 53.2172 53.2172 17.4932 
977 1 55.0034 51.431 15.707 
978 1 56.7896 53.2172 17.4932 
979 1 58.5758 51.431 15.707 
980 1 60.362 53.2172 17.4932 
981 1 62.1482 51.431 15.707 
982 1 63.9344 53.2172 17.4932 
983 1 65.7206 51.431 15.707 
984 1 67.5068 53.2172 17.4932 
985 1 69.293 51.431 15.707 
986 1 71.0792 53.2172 17.4932 
987 1 12.1346 55.0034 15.707 