ITEM: TIMESTEP
90
ITEM: NUMBER OF ATOMS
19652
ITEM: BOX BOUNDS pp pp pp
1.8305238274826625e+01 6.6694761725173052e+01
3.1705602736654026e+01 1.1551871590670096e+02
2.9892328928926513e+01 1.0891208982878678e+02
ITEM: ATOMS id type xu yu zu 
1 2 18.3052 31.7056 29.8923 
2 2 19.7285 34.1707 29.8923 
3 2 19.7285 35.8141 32.2164 
4 2 18.3052 33.349 32.2164 
5 2 21.1517 31.7056 29.8923 
6 2 22.5749 34.1707 29.8923 
7 2 22.5749 35.8141 32.2164 
8 2 21.1517 33.349 32.2164 
9 2 23.9981 31.7056 29.8923 
10 2 25.4213 34.1707 29.8923 
11 2 25.4213 35.8141 32.2164 
12 2 23.9981 33.349 32.2164 
13 2 26.8446 31.7056 29.8923 
14 2 28.2678 34.1707 29.8923 
15 2 28.2678 35.8141 32.2164 
16 2 26.8446 33.349 32.2164 
17 2 29.691 31.7056 29.8923 
18 2 31.1142 34.1707 29.8923 
19 2 31.1142 35.8141 32.2164 
20 2 29.691 33.349 32.2164 
21 2 32.5375 31.7056 29.8923 
22 2 33.9607 34.1707 29.8923 
23 2 33.9607 35.8141 32.2164 
24 2 32.5375 33.349 32.2164 
25 2 35.3839 31.7056 29.8923 
26 2 36.8071 34.1707 29.8923 
27 2 36.8071 35.8141 32.2164 
28 2 35.3839 33.349 32.2164 
29 2 38.2303 31.7056 29.8923 
30 2 39.6536 34.1707 29.8923 
31 2 39.6536 35.8141 32.2164 
32 2 38.2303 33.349 32.2164 
33 2 41.0768 31.7056 29.8923 
34 2 42.5 34.1707 29.8923 
35 2 42.5 35.8141 32.2164 
36 2 41.0768 33.349 32.2164 
37 2 43.9232 31.7056 29.8923 
38 2 45.3464 34.1707 29.8923 
39 2 45.3464 35.8141 32.2164 
40 2 43.9232 33.349 32.2164 
41 2 46.7697 31.7056 29.8923 
42 2 48.1929 34.1707 29.8923 
43 2 48.1929 35.8141 32.2164 
44 2 46.7697 33.349 32.2164 
45 2 49.6161 31.7056 29.8923 
46 2 51.0393 34.1707 29.8923 
47 2 51.0393 35.8141 32.2164 
48 2 49.6161 33.349 32.2164 
49 2 52.4625 31.7056 29.8923 
50 2 53.8858 34.1707 29.8923 
51 2 53.8858 35.8141 32.2164 
52 2 52.4625 33.349 32.2164 
53 2 55.309 31.7056 29.8923 
54 2 56.7322 34.1707 29.8923 
55 2 56.7322 35.8141 32.2164 
56 2 55.309 33.349 32.2164 
57 2 58.1554 31.7056 29.8923 
58 2 59.5787 34.1707 29.8923 
59 2 59.5787 35.8141 32.2164 
60 2 58.1554 33.349 32.2164 
61 2 61.0019 31.7056 29.8923 
62 2 62.4251 34.1707 29.8923 
63 2 62.4251 35.8141 32.2164 
64 2 61.0019 33.349 32.2164 
65 2 63.8483 31.7056 29.8923 
66 2 65.2715 34.1707 29.8923 
67 2 65.2715 35.8141 32.2164 
68 2 63.8483 33.349 32.2164 
69 2 18.3052 36.6358 29.8923 
70 2 19.7285 39.1009 29.8923 
71 2 19.7285 40.7443 32.2164 
72 2 18.3052 38.2792 32.2164 
73 2 21.1517 36.6358 29.8923 
74 2 22.5749 39.1009 29.8923 
75 2 22.5749 40.7443 32.2164 
76 2 21.1517 38.2792 32.2164 
77 2 23.9981 36.6358 29.8923 
78 2 25.4213 39.1009 29.8923 
79 2 25.4213 40.7443 32.2164 
80 2 23.9981 38.2792 32.2164 
81 2 26.8446 36.6358 29.8923 
82 2 28.2678 39.1009 29.8923 
83 2 28.2678 40.7443 32.2164 
84 2 26.8446 38.2792 32.2164 
85 2 29.691 36.6358 29.8923 
86 2 31.1142 39.1009 29.8923 
87 2 31.1142 40.7443 32.2164 
88 2 29.691 38.2792 32.2164 
89 2 32.5375 36.6358 29.8923 
90 2 33.9607 39.1009 29.8923 
91 2 33.9607 40.7443 32.2164 
92 2 32.5375 38.2792 32.2164 
93 2 35.3839 36.6358 29.8923 
94 2 36.8071 39.1009 29.8923 
95 2 36.8071 40.7443 32.2164 
96 2 35.3839 38.2792 32.2164 
97 2 38.2303 36.6358 29.8923 
98 2 39.6536 39.1009 29.8923 
99 2 39.6536 40.7443 32.2164 
100 2 38.2303 38.2792 32.2164 
101 2 41.0768 36.6358 29.8923 
102 2 42.5 39.1009 29.8923 
103 2 42.5 40.7443 32.2164 
104 2 41.0768 38.2792 32.2164 
105 2 43.9232 36.6358 29.8923 
106 2 45.3464 39.1009 29.8923 
107 2 45.3464 40.7443 32.2164 
108 2 43.9232 38.2792 32.2164 
109 2 46.7697 36.6358 29.8923 
110 2 48.1929 39.1009 29.8923 
111 2 48.1929 40.7443 32.2164 
112 2 46.7697 38.2792 32.2164 
113 2 49.6161 36.6358 29.8923 
114 2 51.0393 39.1009 29.8923 
115 2 51.0393 40.7443 32.2164 
116 2 49.6161 38.2792 32.2164 
117 2 52.4625 36.6358 29.8923 
118 2 53.8858 39.1009 29.8923 
119 2 53.8858 40.7443 32.2164 
120 2 52.4625 38.2792 32.2164 
121 2 55.309 36.6358 29.8923 
122 2 56.7322 39.1009 29.8923 
123 2 56.7322 40.7443 32.2164 
124 2 55.309 38.2792 32.2164 
125 2 58.1554 36.6358 29.8923 
126 2 59.5787 39.1009 29.8923 
127 2 59.5787 40.7443 32.2164 
128 2 58.1554 38.2792 32.2164 
129 2 61.0019 36.6358 29.8923 
130 2 62.4251 39.1009 29.8923 
131 2 62.4251 40.7443 32.2164 
132 2 61.0019 38.2792 32.2164 
133 2 63.8483 36.6358 29.8923 
134 2 65.2715 39.1009 29.8923 
135 2 65.2715 40.7443 32.2164 
136 2 63.8483 38.2792 32.2164 
137 2 18.3052 41.566 29.8923 
138 2 19.7285 44.0311 29.8923 
139 2 19.7285 45.6745 32.2164 
140 2 18.3052 43.2094 32.2164 
141 2 21.1517 41.566 29.8923 
142 2 22.5749 44.0311 29.8923 
143 2 22.5749 45.6745 32.2164 
144 2 21.1517 43.2094 32.2164 
145 2 23.9981 41.566 29.8923 
146 2 25.4213 44.0311 29.8923 
147 2 25.4213 45.6745 32.2164 
148 2 23.9981 43.2094 32.2164 
149 2 26.8446 41.566 29.8923 
150 2 28.2678 44.0311 29.8923 
151 2 28.2678 45.6745 32.2164 
152 2 26.8446 43.2094 32.2164 
153 2 29.691 41.566 29.8923 
154 2 31.1142 44.0311 29.8923 
155 2 31.1142 45.6745 32.2164 
156 2 29.691 43.2094 32.2164 
157 2 32.5375 41.566 29.8923 
158 2 33.9607 44.0311 29.8923 
159 2 33.9607 45.6745 32.2164 
160 2 32.5375 43.2094 32.2164 
161 2 35.3839 41.566 29.8923 
162 2 36.8071 44.0311 29.8923 
163 2 36.8071 45.6745 32.2164 
164 2 35.3839 43.2094 32.2164 
165 2 38.2303 41.566 29.8923 
166 2 39.6536 44.0311 29.8923 
167 2 39.6536 45.6745 32.2164 
168 2 38.2303 43.2094 32.2164 
169 2 41.0768 41.566 29.8923 
170 2 42.5 44.0311 29.8923 
171 2 42.5 45.6745 32.2164 
172 2 41.0768 43.2094 32.2164 
173 2 43.9232 41.566 29.8923 
174 2 45.3464 44.0311 29.8923 
175 2 45.3464 45.6745 32.2164 
176 2 43.9232 43.2094 32.2164 
177 2 46.7697 41.566 29.8923 
178 2 48.1929 44.0311 29.8923 
179 2 48.1929 45.6745 32.2164 
180 2 46.7697 43.2094 32.2164 
181 2 49.6161 41.566 29.8923 
182 2 51.0393 44.0311 29.8923 
183 2 51.0393 45.6745 32.2164 
184 2 49.6161 43.2094 32.2164 
185 2 52.4625 41.566 29.8923 
186 2 53.8858 44.0311 29.8923 
187 2 53.8858 45.6745 32.2164 
188 2 52.4625 43.2094 32.2164 
189 2 55.309 41.566 29.8923 
190 2 56.7322 44.0311 29.8923 
191 2 56.7322 45.6745 32.2164 
192 2 55.309 43.2094 32.2164 
193 2 58.1554 41.566 29.8923 
194 2 59.5787 44.0311 29.8923 
195 2 59.5787 45.6745 32.2164 
196 2 58.1554 43.2094 32.2164 
197 2 61.0019 41.566 29.8923 
198 2 62.4251 44.0311 29.8923 
199 2 62.4251 45.6745 32.2164 
200 2 61.0019 43.2094 32.2164 
201 2 63.8483 41.566 29.8923 
202 2 65.2715 44.0311 29.8923 
203 2 65.2715 45.6745 32.2164 
204 2 63.8483 43.2094 32.2164 
205 2 18.3052 46.4962 29.8923 
206 2 19.7285 48.9612 29.8923 
207 2 19.7285 50.6046 32.2164 
208 2 18.3052 48.1395 32.2164 
209 2 21.1517 46.4962 29.8923 
210 2 22.5749 48.9612 29.8923 
211 2 22.5749 50.6046 32.2164 
212 2 21.1517 48.1395 32.2164 
213 2 23.9981 46.4962 29.8923 
214 2 25.4213 48.9612 29.8923 
215 2 25.4213 50.6046 32.2164 
216 2 23.9981 48.1395 32.2164 
217 2 26.8446 46.4962 29.8923 
218 2 28.2678 48.9612 29.8923 
219 2 28.2678 50.6046 32.2164 
220 2 26.8446 48.1395 32.2164 
221 2 29.691 46.4962 29.8923 
222 2 31.1142 48.9612 29.8923 
223 2 31.1142 50.6046 32.2164 
224 2 29.691 48.1395 32.2164 
225 2 32.5375 46.4962 29.8923 
226 2 33.9607 48.9612 29.8923 
227 2 33.9607 50.6046 32.2164 
228 2 32.5375 48.1395 32.2164 
229 2 35.3839 46.4962 29.8923 
230 2 36.8071 48.9612 29.8923 
231 2 36.8071 50.6046 32.2164 
232 2 35.3839 48.1395 32.2164 
233 2 38.2303 46.4962 29.8923 
234 2 39.6536 48.9612 29.8923 
235 2 39.6536 50.6046 32.2164 
236 2 38.2303 48.1395 32.2164 
237 2 41.0768 46.4962 29.8923 
238 2 42.5 48.9612 29.8923 
239 2 42.5 50.6046 32.2164 
240 2 41.0768 48.1395 32.2164 
241 2 43.9232 46.4962 29.8923 
242 2 45.3464 48.9612 29.8923 
243 2 45.3464 50.6046 32.2164 
244 2 43.9232 48.1395 32.2164 
245 2 46.7697 46.4962 29.8923 
246 2 48.1929 48.9612 29.8923 
247 2 48.1929 50.6046 32.2164 
248 2 46.7697 48.1395 32.2164 
249 2 49.6161 46.4962 29.8923 
250 2 51.0393 48.9612 29.8923 
251 2 51.0393 50.6046 32.2164 
252 2 49.6161 48.1395 32.2164 
253 2 52.4625 46.4962 29.8923 
254 2 53.8858 48.9612 29.8923 
255 2 53.8858 50.6046 32.2164 
256 2 52.4625 48.1395 32.2164 
257 2 55.309 46.4962 29.8923 
258 2 56.7322 48.9612 29.8923 
259 2 56.7322 50.6046 32.2164 
260 2 55.309 48.1395 32.2164 
261 2 58.1554 46.4962 29.8923 
262 2 59.5787 48.9612 29.8923 
263 2 59.5787 50.6046 32.2164 
264 2 58.1554 48.1395 32.2164 
265 2 61.0019 46.4962 29.8923 
266 2 62.4251 48.9612 29.8923 
267 2 62.4251 50.6046 32.2164 
268 2 61.0019 48.1395 32.2164 
269 2 63.8483 46.4962 29.8923 
270 2 65.2715 48.9612 29.8923 
271 2 65.2715 50.6046 32.2164 
272 2 63.8483 48.1395 32.2164 
273 2 18.3052 51.4263 29.8923 
274 2 19.7285 53.8914 29.8923 
275 2 19.7285 55.5348 32.2164 
276 2 18.3052 53.0697 32.2164 
277 2 21.1517 51.4263 29.8923 
278 2 22.5749 53.8914 29.8923 
279 2 22.5749 55.5348 32.2164 
280 2 21.1517 53.0697 32.2164 
281 2 23.9981 51.4263 29.8923 
282 2 25.4213 53.8914 29.8923 
283 2 25.4213 55.5348 32.2164 
284 2 23.9981 53.0697 32.2164 
285 2 26.8446 51.4263 29.8923 
286 2 28.2678 53.8914 29.8923 
287 2 28.2678 55.5348 32.2164 
288 2 26.8446 53.0697 32.2164 
289 2 29.691 51.4263 29.8923 
290 2 31.1142 53.8914 29.8923 
291 2 31.1142 55.5348 32.2164 
292 2 29.691 53.0697 32.2164 
293 2 32.5375 51.4263 29.8923 
294 2 33.9607 53.8914 29.8923 
295 2 33.9607 55.5348 32.2164 
296 2 32.5375 53.0697 32.2164 
297 2 35.3839 51.4263 29.8923 
298 2 36.8071 53.8914 29.8923 
299 2 36.8071 55.5348 32.2164 
300 2 35.3839 53.0697 32.2164 
301 2 38.2303 51.4263 29.8923 
302 2 39.6536 53.8914 29.8923 
303 2 39.6536 55.5348 32.2164 
304 2 38.2303 53.0697 32.2164 
305 2 41.0768 51.4263 29.8923 
306 2 42.5 53.8914 29.8923 
307 2 42.5 55.5348 32.2164 
308 2 41.0768 53.0697 32.2164 
309 2 43.9232 51.4263 29.8923 
310 2 45.3464 53.8914 29.8923 
311 2 45.3464 55.5348 32.2164 
312 2 43.9232 53.0697 32.2164 
313 2 46.7697 51.4263 29.8923 
314 2 48.1929 53.8914 29.8923 
315 2 48.1929 55.5348 32.2164 
316 2 46.7697 53.0697 32.2164 
317 2 49.6161 51.4263 29.8923 
318 2 51.0393 53.8914 29.8923 
319 2 51.0393 55.5348 32.2164 
320 2 49.6161 53.0697 32.2164 
321 2 52.4625 51.4263 29.8923 
322 2 53.8858 53.8914 29.8923 
323 2 53.8858 55.5348 32.2164 
324 2 52.4625 53.0697 32.2164 
325 2 55.309 51.4263 29.8923 
326 2 56.7322 53.8914 29.8923 
327 2 56.7322 55.5348 32.2164 
328 2 55.309 53.0697 32.2164 
329 2 58.1554 51.4263 29.8923 
330 2 59.5787 53.8914 29.8923 
331 2 59.5787 55.5348 32.2164 
332 2 58.1554 53.0697 32.2164 
333 2 61.0019 51.4263 29.8923 
334 2 62.4251 53.8914 29.8923 
335 2 62.4251 55.5348 32.2164 
336 2 61.0019 53.0697 32.2164 
337 2 63.8483 51.4263 29.8923 
338 2 65.2715 53.8914 29.8923 
339 2 65.2715 55.5348 32.2164 
340 2 63.8483 53.0697 32.2164 
341 2 18.3052 56.3565 29.8923 
342 2 19.7285 58.8216 29.8923 
343 2 19.7285 60.465 32.2164 
344 2 18.3052 57.9999 32.2164 
345 2 21.1517 56.3565 29.8923 
346 2 22.5749 58.8216 29.8923 
347 2 22.5749 60.465 32.2164 
348 2 21.1517 57.9999 32.2164 
349 2 23.9981 56.3565 29.8923 
350 2 25.4213 58.8216 29.8923 
351 2 25.4213 60.465 32.2164 
352 2 23.9981 57.9999 32.2164 
353 2 26.8446 56.3565 29.8923 
354 2 28.2678 58.8216 29.8923 
355 2 28.2678 60.465 32.2164 
356 2 26.8446 57.9999 32.2164 
357 2 29.691 56.3565 29.8923 
358 2 31.1142 58.8216 29.8923 
359 2 31.1142 60.465 32.2164 
360 2 29.691 57.9999 32.2164 
361 2 32.5375 56.3565 29.8923 
362 2 33.9607 58.8216 29.8923 
363 2 33.9607 60.465 32.2164 
364 2 32.5375 57.9999 32.2164 
365 2 35.3839 56.3565 29.8923 
366 2 36.8071 58.8216 29.8923 
367 2 36.8071 60.465 32.2164 
368 2 35.3839 57.9999 32.2164 
369 2 38.2303 56.3565 29.8923 
370 2 39.6536 58.8216 29.8923 
371 2 39.6536 60.465 32.2164 
372 2 38.2303 57.9999 32.2164 
373 2 41.0768 56.3565 29.8923 
374 2 42.5 58.8216 29.8923 
375 2 42.5 60.465 32.2164 
376 2 41.0768 57.9999 32.2164 
377 2 43.9232 56.3565 29.8923 
378 2 45.3464 58.8216 29.8923 
379 2 45.3464 60.465 32.2164 
380 2 43.9232 57.9999 32.2164 
381 2 46.7697 56.3565 29.8923 
382 2 48.1929 58.8216 29.8923 
383 2 48.1929 60.465 32.2164 
384 2 46.7697 57.9999 32.2164 
385 2 49.6161 56.3565 29.8923 
386 2 51.0393 58.8216 29.8923 
387 2 51.0393 60.465 32.2164 
388 2 49.6161 57.9999 32.2164 
389 2 52.4625 56.3565 29.8923 
390 2 53.8858 58.8216 29.8923 
391 2 53.8858 60.465 32.2164 
392 2 52.4625 57.9999 32.2164 
393 2 55.309 56.3565 29.8923 
394 2 56.7322 58.8216 29.8923 
395 2 56.7322 60.465 32.2164 
396 2 55.309 57.9999 32.2164 
397 2 58.1554 56.3565 29.8923 
398 2 59.5787 58.8216 29.8923 
399 2 59.5787 60.465 32.2164 
400 2 58.1554 57.9999 32.2164 
401 2 61.0019 56.3565 29.8923 
402 2 62.4251 58.8216 29.8923 
403 2 62.4251 60.465 32.2164 
404 2 61.0019 57.9999 32.2164 
405 2 63.8483 56.3565 29.8923 
406 2 65.2715 58.8216 29.8923 
407 2 65.2715 60.465 32.2164 
408 2 63.8483 57.9999 32.2164 
409 2 18.3052 61.2867 29.8923 
410 2 19.7285 63.7518 29.8923 
411 2 19.7285 65.3952 32.2164 
412 2 18.3052 62.9301 32.2164 
413 2 21.1517 61.2867 29.8923 
414 2 22.5749 63.7518 29.8923 
415 2 22.5749 65.3952 32.2164 
416 2 21.1517 62.9301 32.2164 
417 2 23.9981 61.2867 29.8923 
418 2 25.4213 63.7518 29.8923 
419 2 25.4213 65.3952 32.2164 
420 2 23.9981 62.9301 32.2164 
421 2 26.8446 61.2867 29.8923 
422 2 28.2678 63.7518 29.8923 
423 2 28.2678 65.3952 32.2164 
424 2 26.8446 62.9301 32.2164 
425 2 29.691 61.2867 29.8923 
426 2 31.1142 63.7518 29.8923 
427 2 31.1142 65.3952 32.2164 
428 2 29.691 62.9301 32.2164 
429 2 32.5375 61.2867 29.8923 
430 2 33.9607 63.7518 29.8923 
431 2 33.9607 65.3952 32.2164 
432 2 32.5375 62.9301 32.2164 
433 2 35.3839 61.2867 29.8923 
434 2 36.8071 63.7518 29.8923 
435 2 36.8071 65.3952 32.2164 
436 2 35.3839 62.9301 32.2164 
437 2 38.2303 61.2867 29.8923 
438 2 39.6536 63.7518 29.8923 
439 2 39.6536 65.3952 32.2164 
440 2 38.2303 62.9301 32.2164 
441 2 41.0768 61.2867 29.8923 
442 2 42.5 63.7518 29.8923 
443 2 42.5 65.3952 32.2164 
444 2 41.0768 62.9301 32.2164 
445 2 43.9232 61.2867 29.8923 
446 2 45.3464 63.7518 29.8923 
447 2 45.3464 65.3952 32.2164 
448 2 43.9232 62.9301 32.2164 
449 2 46.7697 61.2867 29.8923 
450 2 48.1929 63.7518 29.8923 
451 2 48.1929 65.3952 32.2164 
452 2 46.7697 62.9301 32.2164 
453 2 49.6161 61.2867 29.8923 
454 2 51.0393 63.7518 29.8923 
455 2 51.0393 65.3952 32.2164 
456 2 49.6161 62.9301 32.2164 
457 2 52.4625 61.2867 29.8923 
458 2 53.8858 63.7518 29.8923 
459 2 53.8858 65.3952 32.2164 
460 2 52.4625 62.9301 32.2164 
461 2 55.309 61.2867 29.8923 
462 2 56.7322 63.7518 29.8923 
463 2 56.7322 65.3952 32.2164 
464 2 55.309 62.9301 32.2164 
465 2 58.1554 61.2867 29.8923 
466 2 59.5787 63.7518 29.8923 
467 2 59.5787 65.3952 32.2164 
468 2 58.1554 62.9301 32.2164 
469 2 61.0019 61.2867 29.8923 
470 2 62.4251 63.7518 29.8923 
471 2 62.4251 65.3952 32.2164 
472 2 61.0019 62.9301 32.2164 
473 2 63.8483 61.2867 29.8923 
474 2 65.2715 63.7518 29.8923 
475 2 65.2715 65.3952 32.2164 
476 2 63.8483 62.9301 32.2164 
477 2 18.3052 66.2169 29.8923 
478 2 19.7285 68.682 29.8923 
479 2 19.7285 70.3254 32.2164 
480 2 18.3052 67.8603 32.2164 
481 2 21.1517 66.2169 29.8923 
482 2 22.5749 68.682 29.8923 
483 2 22.5749 70.3254 32.2164 
484 2 21.1517 67.8603 32.2164 
485 2 23.9981 66.2169 29.8923 
486 2 25.4213 68.682 29.8923 
487 2 25.4213 70.3254 32.2164 
488 2 23.9981 67.8603 32.2164 
489 2 26.8446 66.2169 29.8923 
490 2 28.2678 68.682 29.8923 
491 2 28.2678 70.3254 32.2164 
492 2 26.8446 67.8603 32.2164 
493 2 29.691 66.2169 29.8923 
494 2 31.1142 68.682 29.8923 
495 2 31.1142 70.3254 32.2164 
496 2 29.691 67.8603 32.2164 
497 2 32.5375 66.2169 29.8923 
498 2 33.9607 68.682 29.8923 
499 2 33.9607 70.3254 32.2164 
500 2 32.5375 67.8603 32.2164 
501 2 35.3839 66.2169 29.8923 
502 2 36.8071 68.682 29.8923 
503 2 36.8071 70.3254 32.2164 
504 2 35.3839 67.8603 32.2164 
505 2 38.2303 66.2169 29.8923 
506 2 39.6536 68.682 29.8923 
507 2 39.6536 70.3254 32.2164 
508 2 38.2303 67.8603 32.2164 
509 2 41.0768 66.2169 29.8923 
510 2 42.5 68.682 29.8923 
511 2 42.5 70.3254 32.2164 
512 2 41.0768 67.8603 32.2164 
513 2 43.9232 66.2169 29.8923 
514 2 45.3464 68.682 29.8923 
515 2 45.3464 70.3254 32.2164 
516 2 43.9232 67.8603 32.2164 
517 2 46.7697 66.2169 29.8923 
518 2 48.1929 68.682 29.8923 
519 2 48.1929 70.3254 32.2164 
520 2 46.7697 67.8603 32.2164 
521 2 49.6161 66.2169 29.8923 
522 2 51.0393 68.682 29.8923 
523 2 51.0393 70.3254 32.2164 
524 2 49.6161 67.8603 32.2164 
525 2 52.4625 66.2169 29.8923 
526 2 53.8858 68.682 29.8923 
527 2 53.8858 70.3254 32.2164 
528 2 52.4625 67.8603 32.2164 
529 2 55.309 66.2169 29.8923 
530 2 56.7322 68.682 29.8923 
531 2 56.7322 70.3254 32.2164 
532 2 55.309 67.8603 32.2164 
533 2 58.1554 66.2169 29.8923 
534 2 59.5787 68.682 29.8923 
535 2 59.5787 70.3254 32.2164 
536 2 58.1554 67.8603 32.2164 
537 2 61.0019 66.2169 29.8923 
538 2 62.4251 68.682 29.8923 
539 2 62.4251 70.3254 32.2164 
540 2 61.0019 67.8603 32.2164 
541 2 63.8483 66.2169 29.8923 
542 2 65.2715 68.682 29.8923 
543 2 65.2715 70.3254 32.2164 
544 2 63.8483 67.8603 32.2164 
545 2 18.3052 71.1471 29.8923 
546 2 19.7285 73.6122 29.8923 
547 2 19.7285 75.2556 32.2164 
548 2 18.3052 72.7905 32.2164 
549 2 21.1517 71.1471 29.8923 
550 2 22.5749 73.6122 29.8923 
551 2 22.5749 75.2556 32.2164 
552 2 21.1517 72.7905 32.2164 
553 2 23.9981 71.1471 29.8923 
554 2 25.4213 73.6122 29.8923 
555 2 25.4213 75.2556 32.2164 
556 2 23.9981 72.7905 32.2164 
557 2 26.8446 71.1471 29.8923 
558 2 28.2678 73.6122 29.8923 
559 2 28.2678 75.2556 32.2164 
560 2 26.8446 72.7905 32.2164 
561 2 29.691 71.1471 29.8923 
562 2 31.1142 73.6122 29.8923 
563 2 31.1142 75.2556 32.2164 
564 2 29.691 72.7905 32.2164 
565 2 32.5375 71.1471 29.8923 
566 2 33.9607 73.6122 29.8923 
567 2 33.9607 75.2556 32.2164 
568 2 32.5375 72.7905 32.2164 
569 2 35.3839 71.1471 29.8923 
570 2 36.8071 73.6122 29.8923 
571 2 36.8071 75.2556 32.2164 
572 2 35.3839 72.7905 32.2164 
573 2 38.2303 71.1471 29.8923 
574 2 39.6536 73.6122 29.8923 
575 2 39.6536 75.2556 32.2164 
576 2 38.2303 72.7905 32.2164 
577 2 41.0768 71.1471 29.8923 
578 2 42.5 73.6122 29.8923 
579 2 42.5 75.2556 32.2164 
580 2 41.0768 72.7905 32.2164 
581 2 43.9232 71.1471 29.8923 
582 2 45.3464 73.6122 29.8923 
583 2 45.3464 75.2556 32.2164 
584 2 43.9232 72.7905 32.2164 
585 2 46.7697 71.1471 29.8923 
586 2 48.1929 73.6122 29.8923 
587 2 48.1929 75.2556 32.2164 
588 2 46.7697 72.7905 32.2164 
589 2 49.6161 71.1471 29.8923 
590 2 51.0393 73.6122 29.8923 
591 2 51.0393 75.2556 32.2164 
592 2 49.6161 72.7905 32.2164 
593 2 52.4625 71.1471 29.8923 
594 2 53.8858 73.6122 29.8923 
595 2 53.8858 75.2556 32.2164 
596 2 52.4625 72.7905 32.2164 
597 2 55.309 71.1471 29.8923 
598 2 56.7322 73.6122 29.8923 
599 2 56.7322 75.2556 32.2164 
600 2 55.309 72.7905 32.2164 
601 2 58.1554 71.1471 29.8923 
602 2 59.5787 73.6122 29.8923 
603 2 59.5787 75.2556 32.2164 
604 2 58.1554 72.7905 32.2164 
605 2 61.0019 71.1471 29.8923 
606 2 62.4251 73.6122 29.8923 
607 2 62.4251 75.2556 32.2164 
608 2 61.0019 72.7905 32.2164 
609 2 63.8483 71.1471 29.8923 
610 2 65.2715 73.6122 29.8923 
611 2 65.2715 75.2556 32.2164 
612 2 63.8483 72.7905 32.2164 
613 2 18.3052 76.0773 29.8923 
614 2 19.7285 78.5423 29.8923 
615 2 19.7285 80.1857 32.2164 
616 2 18.3052 77.7206 32.2164 
617 2 21.1517 76.0773 29.8923 
618 2 22.5749 78.5423 29.8923 
619 2 22.5749 80.1857 32.2164 
620 2 21.1517 77.7206 32.2164 
621 2 23.9981 76.0773 29.8923 
622 2 25.4213 78.5423 29.8923 
623 2 25.4213 80.1857 32.2164 
624 2 23.9981 77.7206 32.2164 
625 2 26.8446 76.0773 29.8923 
626 2 28.2678 78.5423 29.8923 
627 2 28.2678 80.1857 32.2164 
628 2 26.8446 77.7206 32.2164 
629 2 29.691 76.0773 29.8923 
630 2 31.1142 78.5423 29.8923 
631 2 31.1142 80.1857 32.2164 
632 2 29.691 77.7206 32.2164 
633 2 32.5375 76.0773 29.8923 
634 2 33.9607 78.5423 29.8923 
635 2 33.9607 80.1857 32.2164 
636 2 32.5375 77.7206 32.2164 
637 2 35.3839 76.0773 29.8923 
638 2 36.8071 78.5423 29.8923 
639 2 36.8071 80.1857 32.2164 
640 2 35.3839 77.7206 32.2164 
641 2 38.2303 76.0773 29.8923 
642 2 39.6536 78.5423 29.8923 
643 2 39.6536 80.1857 32.2164 
644 2 38.2303 77.7206 32.2164 
645 2 41.0768 76.0773 29.8923 
646 2 42.5 78.5423 29.8923 
647 2 42.5 80.1857 32.2164 
648 2 41.0768 77.7206 32.2164 
649 2 43.9232 76.0773 29.8923 
650 2 45.3464 78.5423 29.8923 
651 2 45.3464 80.1857 32.2164 
652 2 43.9232 77.7206 32.2164 
653 2 46.7697 76.0773 29.8923 
654 2 48.1929 78.5423 29.8923 
655 2 48.1929 80.1857 32.2164 
656 2 46.7697 77.7206 32.2164 
657 2 49.6161 76.0773 29.8923 
658 2 51.0393 78.5423 29.8923 
659 2 51.0393 80.1857 32.2164 
660 2 49.6161 77.7206 32.2164 
661 2 52.4625 76.0773 29.8923 
662 2 53.8858 78.5423 29.8923 
663 2 53.8858 80.1857 32.2164 
664 2 52.4625 77.7206 32.2164 
665 2 55.309 76.0773 29.8923 
666 2 56.7322 78.5423 29.8923 
667 2 56.7322 80.1857 32.2164 
668 2 55.309 77.7206 32.2164 
669 2 58.1554 76.0773 29.8923 
670 2 59.5787 78.5423 29.8923 
671 2 59.5787 80.1857 32.2164 
672 2 58.1554 77.7206 32.2164 
673 2 61.0019 76.0773 29.8923 
674 2 62.4251 78.5423 29.8923 
675 2 62.4251 80.1857 32.2164 
676 2 61.0019 77.7206 32.2164 
677 2 63.8483 76.0773 29.8923 
678 2 65.2715 78.5423 29.8923 
679 2 65.2715 80.1857 32.2164 
680 2 63.8483 77.7206 32.2164 
681 2 18.3052 81.0074 29.8923 
682 2 19.7285 83.4725 29.8923 
683 2 19.7285 85.1159 32.2164 
684 2 18.3052 82.6508 32.2164 
685 2 21.1517 81.0074 29.8923 
686 2 22.5749 83.4725 29.8923 
687 2 22.5749 85.1159 32.2164 
688 2 21.1517 82.6508 32.2164 
689 2 23.9981 81.0074 29.8923 
690 2 25.4213 83.4725 29.8923 
691 2 25.4213 85.1159 32.2164 
692 2 23.9981 82.6508 32.2164 
693 2 26.8446 81.0074 29.8923 
694 2 28.2678 83.4725 29.8923 
695 2 28.2678 85.1159 32.2164 
696 2 26.8446 82.6508 32.2164 
697 2 29.691 81.0074 29.8923 
698 2 31.1142 83.4725 29.8923 
699 2 31.1142 85.1159 32.2164 
700 2 29.691 82.6508 32.2164 
701 2 32.5375 81.0074 29.8923 
702 2 33.9607 83.4725 29.8923 
703 2 33.9607 85.1159 32.2164 
704 2 32.5375 82.6508 32.2164 
705 2 35.3839 81.0074 29.8923 
706 2 36.8071 83.4725 29.8923 
707 2 36.8071 85.1159 32.2164 
708 2 35.3839 82.6508 32.2164 
709 2 38.2303 81.0074 29.8923 
710 2 39.6536 83.4725 29.8923 
711 2 39.6536 85.1159 32.2164 
712 2 38.2303 82.6508 32.2164 
713 2 41.0768 81.0074 29.8923 
714 2 42.5 83.4725 29.8923 
715 2 42.5 85.1159 32.2164 
716 2 41.0768 82.6508 32.2164 
717 2 43.9232 81.0074 29.8923 
718 2 45.3464 83.4725 29.8923 
719 2 45.3464 85.1159 32.2164 
720 2 43.9232 82.6508 32.2164 
721 2 46.7697 81.0074 29.8923 
722 2 48.1929 83.4725 29.8923 
723 2 48.1929 85.1159 32.2164 
724 2 46.7697 82.6508 32.2164 
725 2 49.6161 81.0074 29.8923 
726 2 51.0393 83.4725 29.8923 
727 2 51.0393 85.1159 32.2164 
728 2 49.6161 82.6508 32.2164 
729 2 52.4625 81.0074 29.8923 
730 2 53.8858 83.4725 29.8923 
731 2 53.8858 85.1159 32.2164 
732 2 52.4625 82.6508 32.2164 
733 2 55.309 81.0074 29.8923 
734 2 56.7322 83.4725 29.8923 
735 2 56.7322 85.1159 32.2164 
736 2 55.309 82.6508 32.2164 
737 2 58.1554 81.0074 29.8923 
738 2 59.5787 83.4725 29.8923 
739 2 59.5787 85.1159 32.2164 
740 2 58.1554 82.6508 32.2164 
741 2 61.0019 81.0074 29.8923 
742 2 62.4251 83.4725 29.8923 
743 2 62.4251 85.1159 32.2164 
744 2 61.0019 82.6508 32.2164 
745 2 63.8483 81.0074 29.8923 
746 2 65.2715 83.4725 29.8923 
747 2 65.2715 85.1159 32.2164 
748 2 63.8483 82.6508 32.2164 
749 2 18.3052 85.9376 29.8923 
750 2 19.7285 88.4027 29.8923 
751 2 19.7285 90.0461 32.2164 
752 2 18.3052 87.581 32.2164 
753 2 21.1517 85.9376 29.8923 
754 2 22.5749 88.4027 29.8923 
755 2 22.5749 90.0461 32.2164 
756 2 21.1517 87.581 32.2164 
757 2 23.9981 85.9376 29.8923 
758 2 25.4213 88.4027 29.8923 
759 2 25.4213 90.0461 32.2164 
760 2 23.9981 87.581 32.2164 
761 2 26.8446 85.9376 29.8923 
762 2 28.2678 88.4027 29.8923 
763 2 28.2678 90.0461 32.2164 
764 2 26.8446 87.581 32.2164 
765 2 29.691 85.9376 29.8923 
766 2 31.1142 88.4027 29.8923 
767 2 31.1142 90.0461 32.2164 
768 2 29.691 87.581 32.2164 
769 2 32.5375 85.9376 29.8923 
770 2 33.9607 88.4027 29.8923 
771 2 33.9607 90.0461 32.2164 
772 2 32.5375 87.581 32.2164 
773 2 35.3839 85.9376 29.8923 
774 2 36.8071 88.4027 29.8923 
775 2 36.8071 90.0461 32.2164 
776 2 35.3839 87.581 32.2164 
777 2 38.2303 85.9376 29.8923 
778 2 39.6536 88.4027 29.8923 
779 2 39.6536 90.0461 32.2164 
780 2 38.2303 87.581 32.2164 
781 2 41.0768 85.9376 29.8923 
782 2 42.5 88.4027 29.8923 
783 2 42.5 90.0461 32.2164 
784 2 41.0768 87.581 32.2164 
785 2 43.9232 85.9376 29.8923 
786 2 45.3464 88.4027 29.8923 
787 2 45.3464 90.0461 32.2164 
788 2 43.9232 87.581 32.2164 
789 2 46.7697 85.9376 29.8923 
790 2 48.1929 88.4027 29.8923 
791 2 48.1929 90.0461 32.2164 
792 2 46.7697 87.581 32.2164 
793 2 49.6161 85.9376 29.8923 
794 2 51.0393 88.4027 29.8923 
795 2 51.0393 90.0461 32.2164 
796 2 49.6161 87.581 32.2164 
797 2 52.4625 85.9376 29.8923 
798 2 53.8858 88.4027 29.8923 
799 2 53.8858 90.0461 32.2164 
800 2 52.4625 87.581 32.2164 
801 2 55.309 85.9376 29.8923 
802 2 56.7322 88.4027 29.8923 
803 2 56.7322 90.0461 32.2164 
804 2 55.309 87.581 32.2164 
805 2 58.1554 85.9376 29.8923 
806 2 59.5787 88.4027 29.8923 
807 2 59.5787 90.0461 32.2164 
808 2 58.1554 87.581 32.2164 
809 2 61.0019 85.9376 29.8923 
810 2 62.4251 88.4027 29.8923 
811 2 62.4251 90.0461 32.2164 
812 2 61.0019 87.581 32.2164 
813 2 63.8483 85.9376 29.8923 
814 2 65.2715 88.4027 29.8923 
815 2 65.2715 90.0461 32.2164 
816 2 63.8483 87.581 32.2164 
817 2 18.3052 90.8678 29.8923 
818 2 19.7285 93.3329 29.8923 
819 2 19.7285 94.9763 32.2164 
820 2 18.3052 92.5112 32.2164 
821 2 21.1517 90.8678 29.8923 
822 2 22.5749 93.3329 29.8923 
823 2 22.5749 94.9763 32.2164 
824 2 21.1517 92.5112 32.2164 
825 2 23.9981 90.8678 29.8923 
826 2 25.4213 93.3329 29.8923 
827 2 25.4213 94.9763 32.2164 
828 2 23.9981 92.5112 32.2164 
829 2 26.8446 90.8678 29.8923 
830 2 28.2678 93.3329 29.8923 
831 2 28.2678 94.9763 32.2164 
832 2 26.8446 92.5112 32.2164 
833 2 29.691 90.8678 29.8923 
834 2 31.1142 93.3329 29.8923 
835 2 31.1142 94.9763 32.2164 
836 2 29.691 92.5112 32.2164 
837 2 32.5375 90.8678 29.8923 
838 2 33.9607 93.3329 29.8923 
839 2 33.9607 94.9763 32.2164 
840 2 32.5375 92.5112 32.2164 
841 2 35.3839 90.8678 29.8923 
842 2 36.8071 93.3329 29.8923 
843 2 36.8071 94.9763 32.2164 
844 2 35.3839 92.5112 32.2164 
845 2 38.2303 90.8678 29.8923 
846 2 39.6536 93.3329 29.8923 
847 2 39.6536 94.9763 32.2164 
848 2 38.2303 92.5112 32.2164 
849 2 41.0768 90.8678 29.8923 
850 2 42.5 93.3329 29.8923 
851 2 42.5 94.9763 32.2164 
852 2 41.0768 92.5112 32.2164 
853 2 43.9232 90.8678 29.8923 
854 2 45.3464 93.3329 29.8923 
855 2 45.3464 94.9763 32.2164 
856 2 43.9232 92.5112 32.2164 
857 2 46.7697 90.8678 29.8923 
858 2 48.1929 93.3329 29.8923 
859 2 48.1929 94.9763 32.2164 
860 2 46.7697 92.5112 32.2164 
861 2 49.6161 90.8678 29.8923 
862 2 51.0393 93.3329 29.8923 
863 2 51.0393 94.9763 32.2164 
864 2 49.6161 92.5112 32.2164 
865 2 52.4625 90.8678 29.8923 
866 2 53.8858 93.3329 29.8923 
867 2 53.8858 94.9763 32.2164 
868 2 52.4625 92.5112 32.2164 
869 2 55.309 90.8678 29.8923 
870 2 56.7322 93.3329 29.8923 
871 2 56.7322 94.9763 32.2164 
872 2 55.309 92.5112 32.2164 
873 2 58.1554 90.8678 29.8923 
874 2 59.5787 93.3329 29.8923 
875 2 59.5787 94.9763 32.2164 
876 2 58.1554 92.5112 32.2164 
877 2 61.0019 90.8678 29.8923 
878 2 62.4251 93.3329 29.8923 
879 2 62.4251 94.9763 32.2164 
880 2 61.0019 92.5112 32.2164 
881 2 63.8483 90.8678 29.8923 
882 2 65.2715 93.3329 29.8923 
883 2 65.2715 94.9763 32.2164 
884 2 63.8483 92.5112 32.2164 
885 2 18.3052 95.798 29.8923 
886 2 19.7285 98.2631 29.8923 
887 2 19.7285 99.9065 32.2164 
888 2 18.3052 97.4414 32.2164 
889 2 21.1517 95.798 29.8923 
890 2 22.5749 98.2631 29.8923 
891 2 22.5749 99.9065 32.2164 
892 2 21.1517 97.4414 32.2164 
893 2 23.9981 95.798 29.8923 
894 2 25.4213 98.2631 29.8923 
895 2 25.4213 99.9065 32.2164 
896 2 23.9981 97.4414 32.2164 
897 2 26.8446 95.798 29.8923 
898 2 28.2678 98.2631 29.8923 
899 2 28.2678 99.9065 32.2164 
900 2 26.8446 97.4414 32.2164 
901 2 29.691 95.798 29.8923 
902 2 31.1142 98.2631 29.8923 
903 2 31.1142 99.9065 32.2164 
904 2 29.691 97.4414 32.2164 
905 2 32.5375 95.798 29.8923 
906 2 33.9607 98.2631 29.8923 
907 2 33.9607 99.9065 32.2164 
908 2 32.5375 97.4414 32.2164 
909 2 35.3839 95.798 29.8923 
910 2 36.8071 98.2631 29.8923 
911 2 36.8071 99.9065 32.2164 
912 2 35.3839 97.4414 32.2164 
913 2 38.2303 95.798 29.8923 
914 2 39.6536 98.2631 29.8923 
915 2 39.6536 99.9065 32.2164 
916 2 38.2303 97.4414 32.2164 
917 2 41.0768 95.798 29.8923 
918 2 42.5 98.2631 29.8923 
919 2 42.5 99.9065 32.2164 
920 2 41.0768 97.4414 32.2164 
921 2 43.9232 95.798 29.8923 
922 2 45.3464 98.2631 29.8923 
923 2 45.3464 99.9065 32.2164 
924 2 43.9232 97.4414 32.2164 
925 2 46.7697 95.798 29.8923 
926 2 48.1929 98.2631 29.8923 
927 2 48.1929 99.9065 32.2164 
928 2 46.7697 97.4414 32.2164 
929 2 49.6161 95.798 29.8923 
930 2 51.0393 98.2631 29.8923 
931 2 51.0393 99.9065 32.2164 
932 2 49.6161 97.4414 32.2164 
933 2 52.4625 95.798 29.8923 
934 2 53.8858 98.2631 29.8923 
935 2 53.8858 99.9065 32.2164 
936 2 52.4625 97.4414 32.2164 
937 2 55.309 95.798 29.8923 
938 2 56.7322 98.2631 29.8923 
939 2 56.7322 99.9065 32.2164 
940 2 55.309 97.4414 32.2164 
941 2 58.1554 95.798 29.8923 
942 2 59.5787 98.2631 29.8923 
943 2 59.5787 99.9065 32.2164 
944 2 58.1554 97.4414 32.2164 
945 2 61.0019 95.798 29.8923 
946 2 62.4251 98.2631 29.8923 
947 2 62.4251 99.9065 32.2164 
948 2 61.0019 97.4414 32.2164 
949 2 63.8483 95.798 29.8923 
950 2 65.2715 98.2631 29.8923 
951 2 65.2715 99.9065 32.2164 
952 2 63.8483 97.4414 32.2164 
953 2 18.3052 100.728 29.8923 
954 2 19.7285 103.193 29.8923 
955 2 19.7285 104.837 32.2164 
956 2 18.3052 102.372 32.2164 
957 2 21.1517 100.728 29.8923 
958 2 22.5749 103.193 29.8923 
959 2 22.5749 104.837 32.2164 
960 2 21.1517 102.372 32.2164 
961 2 23.9981 100.728 29.8923 
962 2 25.4213 103.193 29.8923 
963 2 25.4213 104.837 32.2164 
964 2 23.9981 102.372 32.2164 
965 2 26.8446 100.728 29.8923 
966 2 28.2678 103.193 29.8923 
967 2 28.2678 104.837 32.2164 
968 2 26.8446 102.372 32.2164 
969 2 29.691 100.728 29.8923 
970 2 31.1142 103.193 29.8923 
971 2 31.1142 104.837 32.2164 