ITEM: TIMESTEP
76
ITEM: NUMBER OF ATOMS
19652
ITEM: BOX BOUNDS pp pp pp
1.5438571172460021e+01 6.9561428827539601e+01
2.6740389666968866e+01 1.2048392897638617e+02
2.5211081153445903e+01 1.1359333760426733e+02
ITEM: ATOMS id type xu yu zu 
1 1 15.4386 26.7404 25.2111 
2 1 17.0304 29.4976 25.2111 
3 1 17.0304 31.3357 27.8106 
4 1 15.4386 28.5785 27.8106 
5 1 18.6223 26.7404 25.2111 
6 1 20.2141 29.4976 25.2111 
7 1 20.2141 31.3357 27.8106 
8 1 18.6223 28.5785 27.8106 
9 1 21.806 26.7404 25.2111 
10 1 23.3978 29.4976 25.2111 
11 1 23.3978 31.3357 27.8106 
12 1 21.806 28.5785 27.8106 
13 1 24.9897 26.7404 25.2111 
14 1 26.5815 29.4976 25.2111 
15 1 26.5815 31.3357 27.8106 
16 1 24.9897 28.5785 27.8106 
17 1 28.1734 26.7404 25.2111 
18 1 29.7652 29.4976 25.2111 
19 1 29.7652 31.3357 27.8106 
20 1 28.1734 28.5785 27.8106 
21 1 31.3571 26.7404 25.2111 
22 1 32.9489 29.4976 25.2111 
23 1 32.9489 31.3357 27.8106 
24 1 31.3571 28.5785 27.8106 
25 1 34.5408 26.7404 25.2111 
26 1 36.1326 29.4976 25.2111 
27 1 36.1326 31.3357 27.8106 
28 1 34.5408 28.5785 27.8106 
29 1 37.7245 26.7404 25.2111 
30 1 39.3163 29.4976 25.2111 
31 1 39.3163 31.3357 27.8106 
32 1 37.7245 28.5785 27.8106 
33 1 40.9082 26.7404 25.2111 
34 1 42.5 29.4976 25.2111 
35 1 42.5 31.3357 27.8106 
36 1 40.9082 28.5785 27.8106 
37 1 44.0918 26.7404 25.2111 
38 1 45.6837 29.4976 25.2111 
39 1 45.6837 31.3357 27.8106 
40 1 44.0918 28.5785 27.8106 
41 1 47.2755 26.7404 25.2111 
42 1 48.8674 29.4976 25.2111 
43 1 48.8674 31.3357 27.8106 
44 1 47.2755 28.5785 27.8106 
45 1 50.4592 26.7404 25.2111 
46 1 52.0511 29.4976 25.2111 
47 1 52.0511 31.3357 27.8106 
48 1 50.4592 28.5785 27.8106 
49 1 53.6429 26.7404 25.2111 
50 1 55.2348 29.4976 25.2111 
51 1 55.2348 31.3357 27.8106 
52 1 53.6429 28.5785 27.8106 
53 1 56.8266 26.7404 25.2111 
54 1 58.4185 29.4976 25.2111 
55 1 58.4185 31.3357 27.8106 
56 1 56.8266 28.5785 27.8106 
57 1 60.0103 26.7404 25.2111 
58 1 61.6022 29.4976 25.2111 
59 1 61.6022 31.3357 27.8106 
60 1 60.0103 28.5785 27.8106 
61 1 63.194 26.7404 25.2111 
62 1 64.7859 29.4976 25.2111 
63 1 64.7859 31.3357 27.8106 
64 1 63.194 28.5785 27.8106 
65 1 66.3777 26.7404 25.2111 
66 1 67.9696 29.4976 25.2111 
67 1 67.9696 31.3357 27.8106 
68 1 66.3777 28.5785 27.8106 
69 1 15.4386 32.2547 25.2111 
70 1 17.0304 35.0119 25.2111 
71 1 17.0304 36.85 27.8106 
72 1 15.4386 34.0928 27.8106 
73 1 18.6223 32.2547 25.2111 
74 1 20.2141 35.0119 25.2111 
75 1 20.2141 36.85 27.8106 
76 1 18.6223 34.0928 27.8106 
77 1 21.806 32.2547 25.2111 
78 1 23.3978 35.0119 25.2111 
79 1 23.3978 36.85 27.8106 
80 1 21.806 34.0928 27.8106 
81 1 24.9897 32.2547 25.2111 
82 1 26.5815 35.0119 25.2111 
83 1 26.5815 36.85 27.8106 
84 1 24.9897 34.0928 27.8106 
85 1 28.1734 32.2547 25.2111 
86 1 29.7652 35.0119 25.2111 
87 1 29.7652 36.85 27.8106 
88 1 28.1734 34.0928 27.8106 
89 1 31.3571 32.2547 25.2111 
90 1 32.9489 35.0119 25.2111 
91 1 32.9489 36.85 27.8106 
92 1 31.3571 34.0928 27.8106 
93 1 34.5408 32.2547 25.2111 
94 1 36.1326 35.0119 25.2111 
95 1 36.1326 36.85 27.8106 
96 1 34.5408 34.0928 27.8106 
97 1 37.7245 32.2547 25.2111 
98 1 39.3163 35.0119 25.2111 
99 1 39.3163 36.85 27.8106 
100 1 37.7245 34.0928 27.8106 
101 1 40.9082 32.2547 25.2111 
102 1 42.5 35.0119 25.2111 
103 1 42.5 36.85 27.8106 
104 1 40.9082 34.0928 27.8106 
105 1 44.0918 32.2547 25.2111 
106 1 45.6837 35.0119 25.2111 
107 1 45.6837 36.85 27.8106 
108 1 44.0918 34.0928 27.8106 
109 1 47.2755 32.2547 25.2111 
110 1 48.8674 35.0119 25.2111 
111 1 48.8674 36.85 27.8106 
112 1 47.2755 34.0928 27.8106 
113 1 50.4592 32.2547 25.2111 
114 1 52.0511 35.0119 25.2111 
115 1 52.0511 36.85 27.8106 
116 1 50.4592 34.0928 27.8106 
117 1 53.6429 32.2547 25.2111 
118 1 55.2348 35.0119 25.2111 
119 1 55.2348 36.85 27.8106 
120 1 53.6429 34.0928 27.8106 
121 1 56.8266 32.2547 25.2111 
122 1 58.4185 35.0119 25.2111 
123 1 58.4185 36.85 27.8106 
124 1 56.8266 34.0928 27.8106 
125 1 60.0103 32.2547 25.2111 
126 1 61.6022 35.0119 25.2111 
127 1 61.6022 36.85 27.8106 
128 1 60.0103 34.0928 27.8106 
129 1 63.194 32.2547 25.2111 
130 1 64.7859 35.0119 25.2111 
131 1 64.7859 36.85 27.8106 
132 1 63.194 34.0928 27.8106 
133 1 66.3777 32.2547 25.2111 
134 1 67.9696 35.0119 25.2111 
135 1 67.9696 36.85 27.8106 
136 1 66.3777 34.0928 27.8106 
137 1 15.4386 37.769 25.2111 
138 1 17.0304 40.5262 25.2111 
139 1 17.0304 42.3643 27.8106 
140 1 15.4386 39.6071 27.8106 
141 1 18.6223 37.769 25.2111 
142 1 20.2141 40.5262 25.2111 
143 1 20.2141 42.3643 27.8106 
144 1 18.6223 39.6071 27.8106 
145 1 21.806 37.769 25.2111 
146 1 23.3978 40.5262 25.2111 
147 1 23.3978 42.3643 27.8106 
148 1 21.806 39.6071 27.8106 
149 1 24.9897 37.769 25.2111 
150 1 26.5815 40.5262 25.2111 
151 1 26.5815 42.3643 27.8106 
152 1 24.9897 39.6071 27.8106 
153 1 28.1734 37.769 25.2111 
154 1 29.7652 40.5262 25.2111 
155 1 29.7652 42.3643 27.8106 
156 1 28.1734 39.6071 27.8106 
157 1 31.3571 37.769 25.2111 
158 1 32.9489 40.5262 25.2111 
159 1 32.9489 42.3643 27.8106 
160 1 31.3571 39.6071 27.8106 
161 1 34.5408 37.769 25.2111 
162 1 36.1326 40.5262 25.2111 
163 1 36.1326 42.3643 27.8106 
164 1 34.5408 39.6071 27.8106 
165 1 37.7245 37.769 25.2111 
166 1 39.3163 40.5262 25.2111 
167 1 39.3163 42.3643 27.8106 
168 1 37.7245 39.6071 27.8106 
169 1 40.9082 37.769 25.2111 
170 1 42.5 40.5262 25.2111 
171 1 42.5 42.3643 27.8106 
172 1 40.9082 39.6071 27.8106 
173 1 44.0918 37.769 25.2111 
174 1 45.6837 40.5262 25.2111 
175 1 45.6837 42.3643 27.8106 
176 1 44.0918 39.6071 27.8106 
177 1 47.2755 37.769 25.2111 
178 1 48.8674 40.5262 25.2111 
179 1 48.8674 42.3643 27.8106 
180 1 47.2755 39.6071 27.8106 
181 1 50.4592 37.769 25.2111 
182 1 52.0511 40.5262 25.2111 
183 1 52.0511 42.3643 27.8106 
184 1 50.4592 39.6071 27.8106 
185 1 53.6429 37.769 25.2111 
186 1 55.2348 40.5262 25.2111 
187 1 55.2348 42.3643 27.8106 
188 1 53.6429 39.6071 27.8106 
189 1 56.8266 37.769 25.2111 
190 1 58.4185 40.5262 25.2111 
191 1 58.4185 42.3643 27.8106 
192 1 56.8266 39.6071 27.8106 
193 1 60.0103 37.769 25.2111 
194 1 61.6022 40.5262 25.2111 
195 1 61.6022 42.3643 27.8106 
196 1 60.0103 39.6071 27.8106 
197 1 63.194 37.769 25.2111 
198 1 64.7859 40.5262 25.2111 
199 1 64.7859 42.3643 27.8106 
200 1 63.194 39.6071 27.8106 
201 1 66.3777 37.769 25.2111 
202 1 67.9696 40.5262 25.2111 
203 1 67.9696 42.3643 27.8106 
204 1 66.3777 39.6071 27.8106 
205 1 15.4386 43.2834 25.2111 
206 1 17.0304 46.0405 25.2111 
207 1 17.0304 47.8786 27.8106 
208 1 15.4386 45.1215 27.8106 
209 1 18.6223 43.2834 25.2111 
210 1 20.2141 46.0405 25.2111 
211 1 20.2141 47.8786 27.8106 
212 1 18.6223 45.1215 27.8106 
213 1 21.806 43.2834 25.2111 
214 1 23.3978 46.0405 25.2111 
215 1 23.3978 47.8786 27.8106 
216 1 21.806 45.1215 27.8106 
217 1 24.9897 43.2834 25.2111 
218 1 26.5815 46.0405 25.2111 
219 1 26.5815 47.8786 27.8106 
220 1 24.9897 45.1215 27.8106 
221 1 28.1734 43.2834 25.2111 
222 1 29.7652 46.0405 25.2111 
223 1 29.7652 47.8786 27.8106 
224 1 28.1734 45.1215 27.8106 
225 1 31.3571 43.2834 25.2111 
226 1 32.9489 46.0405 25.2111 
227 1 32.9489 47.8786 27.8106 
228 1 31.3571 45.1215 27.8106 
229 1 34.5408 43.2834 25.2111 
230 1 36.1326 46.0405 25.2111 
231 1 36.1326 47.8786 27.8106 
232 1 34.5408 45.1215 27.8106 
233 1 37.7245 43.2834 25.2111 
234 1 39.3163 46.0405 25.2111 
235 1 39.3163 47.8786 27.8106 
236 1 37.7245 45.1215 27.8106 
237 1 40.9082 43.2834 25.2111 
238 1 42.5 46.0405 25.2111 
239 1 42.5 47.8786 27.8106 
240 1 40.9082 45.1215 27.8106 
241 1 44.0918 43.2834 25.2111 
242 1 45.6837 46.0405 25.2111 
243 1 45.6837 47.8786 27.8106 
244 1 44.0918 45.1215 27.8106 
245 1 47.2755 43.2834 25.2111 
246 1 48.8674 46.0405 25.2111 
247 1 48.8674 47.8786 27.8106 
248 1 47.2755 45.1215 27.8106 
249 1 50.4592 43.2834 25.2111 
250 1 52.0511 46.0405 25.2111 
251 1 52.0511 47.8786 27.8106 
252 1 50.4592 45.1215 27.8106 
253 1 53.6429 43.2834 25.2111 
254 1 55.2348 46.0405 25.2111 
255 1 55.2348 47.8786 27.8106 
256 1 53.6429 45.1215 27.8106 
257 1 56.8266 43.2834 25.2111 
258 1 58.4185 46.0405 25.2111 
259 1 58.4185 47.8786 27.8106 
260 1 56.8266 45.1215 27.8106 
261 1 60.0103 43.2834 25.2111 
262 1 61.6022 46.0405 25.2111 
263 1 61.6022 47.8786 27.8106 
264 1 60.0103 45.1215 27.8106 
265 1 63.194 43.2834 25.2111 
266 1 64.7859 46.0405 25.2111 
267 1 64.7859 47.8786 27.8106 
268 1 63.194 45.1215 27.8106 
269 1 66.3777 43.2834 25.2111 
270 1 67.9696 46.0405 25.2111 
271 1 67.9696 47.8786 27.8106 
272 1 66.3777 45.1215 27.8106 
273 1 15.4386 48.7977 25.2111 
274 1 17.0304 51.5549 25.2111 
275 1 17.0304 53.393 27.8106 
276 1 15.4386 50.6358 27.8106 
277 1 18.6223 48.7977 25.2111 
278 1 20.2141 51.5549 25.2111 
279 1 20.2141 53.393 27.8106 
280 1 18.6223 50.6358 27.8106 
281 1 21.806 48.7977 25.2111 
282 1 23.3978 51.5549 25.2111 
283 1 23.3978 53.393 27.8106 
284 1 21.806 50.6358 27.8106 
285 1 24.9897 48.7977 25.2111 
286 1 26.5815 51.5549 25.2111 
287 1 26.5815 53.393 27.8106 
288 1 24.9897 50.6358 27.8106 
289 1 28.1734 48.7977 25.2111 
290 1 29.7652 51.5549 25.2111 
291 1 29.7652 53.393 27.8106 
292 1 28.1734 50.6358 27.8106 
293 1 31.3571 48.7977 25.2111 
294 1 32.9489 51.5549 25.2111 
295 1 32.9489 53.393 27.8106 
296 1 31.3571 50.6358 27.8106 
297 1 34.5408 48.7977 25.2111 
298 1 36.1326 51.5549 25.2111 
299 1 36.1326 53.393 27.8106 
300 1 34.5408 50.6358 27.8106 
301 1 37.7245 48.7977 25.2111 
302 1 39.3163 51.5549 25.2111 
303 1 39.3163 53.393 27.8106 
304 1 37.7245 50.6358 27.8106 
305 1 40.9082 48.7977 25.2111 
306 1 42.5 51.5549 25.2111 
307 1 42.5 53.393 27.8106 
308 1 40.9082 50.6358 27.8106 
309 1 44.0918 48.7977 25.2111 
310 1 45.6837 51.5549 25.2111 
311 1 45.6837 53.393 27.8106 
312 1 44.0918 50.6358 27.8106 
313 1 47.2755 48.7977 25.2111 
314 1 48.8674 51.5549 25.2111 
315 1 48.8674 53.393 27.8106 
316 1 47.2755 50.6358 27.8106 
317 1 50.4592 48.7977 25.2111 
318 1 52.0511 51.5549 25.2111 
319 1 52.0511 53.393 27.8106 
320 1 50.4592 50.6358 27.8106 
321 1 53.6429 48.7977 25.2111 
322 1 55.2348 51.5549 25.2111 
323 1 55.2348 53.393 27.8106 
324 1 53.6429 50.6358 27.8106 
325 1 56.8266 48.7977 25.2111 
326 1 58.4185 51.5549 25.2111 
327 1 58.4185 53.393 27.8106 
328 1 56.8266 50.6358 27.8106 
329 1 60.0103 48.7977 25.2111 
330 1 61.6022 51.5549 25.2111 
331 1 61.6022 53.393 27.8106 
332 1 60.0103 50.6358 27.8106 
333 1 63.194 48.7977 25.2111 
334 1 64.7859 51.5549 25.2111 
335 1 64.7859 53.393 27.8106 
336 1 63.194 50.6358 27.8106 
337 1 66.3777 48.7977 25.2111 
338 1 67.9696 51.5549 25.2111 
339 1 67.9696 53.393 27.8106 
340 1 66.3777 50.6358 27.8106 
341 1 15.4386 54.312 25.2111 
342 1 17.0304 57.0692 25.2111 
343 1 17.0304 58.9073 27.8106 
344 1 15.4386 56.1501 27.8106 
345 1 18.6223 54.312 25.2111 
346 1 20.2141 57.0692 25.2111 
347 1 20.2141 58.9073 27.8106 
348 1 18.6223 56.1501 27.8106 
349 1 21.806 54.312 25.2111 
350 1 23.3978 57.0692 25.2111 
351 1 23.3978 58.9073 27.8106 
352 1 21.806 56.1501 27.8106 
353 1 24.9897 54.312 25.2111 
354 1 26.5815 57.0692 25.2111 
355 1 26.5815 58.9073 27.8106 
356 1 24.9897 56.1501 27.8106 
357 1 28.1734 54.312 25.2111 
358 1 29.7652 57.0692 25.2111 
359 1 29.7652 58.9073 27.8106 
360 1 28.1734 56.1501 27.8106 
361 1 31.3571 54.312 25.2111 
362 1 32.9489 57.0692 25.2111 
363 1 32.9489 58.9073 27.8106 
364 1 31.3571 56.1501 27.8106 
365 1 34.5408 54.312 25.2111 
366 1 36.1326 57.0692 25.2111 
367 1 36.1326 58.9073 27.8106 
368 1 34.5408 56.1501 27.8106 
369 1 37.7245 54.312 25.2111 
370 1 39.3163 57.0692 25.2111 
371 1 39.3163 58.9073 27.8106 
372 1 37.7245 56.1501 27.8106 
373 1 40.9082 54.312 25.2111 
374 1 42.5 57.0692 25.2111 
375 1 42.5 58.9073 27.8106 
376 1 40.9082 56.1501 27.8106 
377 1 44.0918 54.312 25.2111 
378 1 45.6837 57.0692 25.2111 
379 1 45.6837 58.9073 27.8106 
380 1 44.0918 56.1501 27.8106 
381 1 47.2755 54.312 25.2111 
382 1 48.8674 57.0692 25.2111 
383 1 48.8674 58.9073 27.8106 
384 1 47.2755 56.1501 27.8106 
385 1 50.4592 54.312 25.2111 
386 1 52.0511 57.0692 25.2111 
387 1 52.0511 58.9073 27.8106 
388 1 50.4592 56.1501 27.8106 
389 1 53.6429 54.312 25.2111 
390 1 55.2348 57.0692 25.2111 
391 1 55.2348 58.9073 27.8106 
392 1 53.6429 56.1501 27.8106 
393 1 56.8266 54.312 25.2111 
394 1 58.4185 57.0692 25.2111 
395 1 58.4185 58.9073 27.8106 
396 1 56.8266 56.1501 27.8106 
397 1 60.0103 54.312 25.2111 
398 1 61.6022 57.0692 25.2111 
399 1 61.6022 58.9073 27.8106 
400 1 60.0103 56.1501 27.8106 
401 1 63.194 54.312 25.2111 
402 1 64.7859 57.0692 25.2111 
403 1 64.7859 58.9073 27.8106 
404 1 63.194 56.1501 27.8106 
405 1 66.3777 54.312 25.2111 
406 1 67.9696 57.0692 25.2111 
407 1 67.9696 58.9073 27.8106 
408 1 66.3777 56.1501 27.8106 
409 1 15.4386 59.8263 25.2111 
410 1 17.0304 62.5835 25.2111 
411 1 17.0304 64.4216 27.8106 
412 1 15.4386 61.6645 27.8106 
413 1 18.6223 59.8263 25.2111 
414 1 20.2141 62.5835 25.2111 
415 1 20.2141 64.4216 27.8106 
416 1 18.6223 61.6645 27.8106 
417 1 21.806 59.8263 25.2111 
418 1 23.3978 62.5835 25.2111 
419 1 23.3978 64.4216 27.8106 
420 1 21.806 61.6645 27.8106 
421 1 24.9897 59.8263 25.2111 
422 1 26.5815 62.5835 25.2111 
423 1 26.5815 64.4216 27.8106 
424 1 24.9897 61.6645 27.8106 
425 1 28.1734 59.8263 25.2111 
426 1 29.7652 62.5835 25.2111 
427 1 29.7652 64.4216 27.8106 
428 1 28.1734 61.6645 27.8106 
429 1 31.3571 59.8263 25.2111 
430 1 32.9489 62.5835 25.2111 
431 1 32.9489 64.4216 27.8106 
432 1 31.3571 61.6645 27.8106 
433 1 34.5408 59.8263 25.2111 
434 1 36.1326 62.5835 25.2111 
435 1 36.1326 64.4216 27.8106 
436 1 34.5408 61.6645 27.8106 
437 1 37.7245 59.8263 25.2111 
438 1 39.3163 62.5835 25.2111 
439 1 39.3163 64.4216 27.8106 
440 1 37.7245 61.6645 27.8106 
441 1 40.9082 59.8263 25.2111 
442 1 42.5 62.5835 25.2111 
443 1 42.5 64.4216 27.8106 
444 1 40.9082 61.6645 27.8106 
445 1 44.0918 59.8263 25.2111 
446 1 45.6837 62.5835 25.2111 
447 1 45.6837 64.4216 27.8106 
448 1 44.0918 61.6645 27.8106 
449 1 47.2755 59.8263 25.2111 
450 1 48.8674 62.5835 25.2111 
451 1 48.8674 64.4216 27.8106 
452 1 47.2755 61.6645 27.8106 
453 1 50.4592 59.8263 25.2111 
454 1 52.0511 62.5835 25.2111 
455 1 52.0511 64.4216 27.8106 
456 1 50.4592 61.6645 27.8106 
457 1 53.6429 59.8263 25.2111 
458 1 55.2348 62.5835 25.2111 
459 1 55.2348 64.4216 27.8106 
460 1 53.6429 61.6645 27.8106 
461 1 56.8266 59.8263 25.2111 
462 1 58.4185 62.5835 25.2111 
463 1 58.4185 64.4216 27.8106 
464 1 56.8266 61.6645 27.8106 
465 1 60.0103 59.8263 25.2111 
466 1 61.6022 62.5835 25.2111 
467 1 61.6022 64.4216 27.8106 
468 1 60.0103 61.6645 27.8106 
469 1 63.194 59.8263 25.2111 
470 1 64.7859 62.5835 25.2111 
471 1 64.7859 64.4216 27.8106 
472 1 63.194 61.6645 27.8106 
473 1 66.3777 59.8263 25.2111 
474 1 67.9696 62.5835 25.2111 
475 1 67.9696 64.4216 27.8106 
476 1 66.3777 61.6645 27.8106 
477 1 15.4386 65.3407 25.2111 
478 1 17.0304 68.0978 25.2111 
479 1 17.0304 69.9359 27.8106 
480 1 15.4386 67.1788 27.8106 
481 1 18.6223 65.3407 25.2111 
482 1 20.2141 68.0978 25.2111 
483 1 20.2141 69.9359 27.8106 
484 1 18.6223 67.1788 27.8106 
485 1 21.806 65.3407 25.2111 
486 1 23.3978 68.0978 25.2111 
487 1 23.3978 69.9359 27.8106 
488 1 21.806 67.1788 27.8106 
489 1 24.9897 65.3407 25.2111 
490 1 26.5815 68.0978 25.2111 
491 1 26.5815 69.9359 27.8106 
492 1 24.9897 67.1788 27.8106 
493 1 28.1734 65.3407 25.2111 
494 1 29.7652 68.0978 25.2111 
495 1 29.7652 69.9359 27.8106 
496 1 28.1734 67.1788 27.8106 
497 1 31.3571 65.3407 25.2111 
498 1 32.9489 68.0978 25.2111 
499 1 32.9489 69.9359 27.8106 
500 1 31.3571 67.1788 27.8106 
501 1 34.5408 65.3407 25.2111 
502 1 36.1326 68.0978 25.2111 
503 1 36.1326 69.9359 27.8106 
504 1 34.5408 67.1788 27.8106 
505 1 37.7245 65.3407 25.2111 
506 1 39.3163 68.0978 25.2111 
507 1 39.3163 69.9359 27.8106 
508 1 37.7245 67.1788 27.8106 
509 1 40.9082 65.3407 25.2111 
510 1 42.5 68.0978 25.2111 
511 1 42.5 69.9359 27.8106 
512 1 40.9082 67.1788 27.8106 
513 1 44.0918 65.3407 25.2111 
514 1 45.6837 68.0978 25.2111 
515 1 45.6837 69.9359 27.8106 
516 1 44.0918 67.1788 27.8106 
517 1 47.2755 65.3407 25.2111 
518 1 48.8674 68.0978 25.2111 
519 1 48.8674 69.9359 27.8106 
520 1 47.2755 67.1788 27.8106 
521 1 50.4592 65.3407 25.2111 
522 1 52.0511 68.0978 25.2111 
523 1 52.0511 69.9359 27.8106 
524 1 50.4592 67.1788 27.8106 
525 1 53.6429 65.3407 25.2111 
526 1 55.2348 68.0978 25.2111 
527 1 55.2348 69.9359 27.8106 
528 1 53.6429 67.1788 27.8106 
529 1 56.8266 65.3407 25.2111 
530 1 58.4185 68.0978 25.2111 
531 1 58.4185 69.9359 27.8106 
532 1 56.8266 67.1788 27.8106 
533 1 60.0103 65.3407 25.2111 
534 1 61.6022 68.0978 25.2111 
535 1 61.6022 69.9359 27.8106 
536 1 60.0103 67.1788 27.8106 
537 1 63.194 65.3407 25.2111 
538 1 64.7859 68.0978 25.2111 
539 1 64.7859 69.9359 27.8106 
540 1 63.194 67.1788 27.8106 
541 1 66.3777 65.3407 25.2111 
542 1 67.9696 68.0978 25.2111 
543 1 67.9696 69.9359 27.8106 
544 1 66.3777 67.1788 27.8106 
545 1 15.4386 70.855 25.2111 
546 1 17.0304 73.6122 25.2111 
547 1 17.0304 75.4503 27.8106 
548 1 15.4386 72.6931 27.8106 
549 1 18.6223 70.855 25.2111 
550 1 20.2141 73.6122 25.2111 
551 1 20.2141 75.4503 27.8106 
552 1 18.6223 72.6931 27.8106 
553 1 21.806 70.855 25.2111 
554 1 23.3978 73.6122 25.2111 
555 1 23.3978 75.4503 27.8106 
556 1 21.806 72.6931 27.8106 
557 1 24.9897 70.855 25.2111 
558 1 26.5815 73.6122 25.2111 
559 1 26.5815 75.4503 27.8106 
560 1 24.9897 72.6931 27.8106 
561 1 28.1734 70.855 25.2111 
562 1 29.7652 73.6122 25.2111 
563 1 29.7652 75.4503 27.8106 
564 1 28.1734 72.6931 27.8106 
565 1 31.3571 70.855 25.2111 
566 1 32.9489 73.6122 25.2111 
567 1 32.9489 75.4503 27.8106 
568 1 31.3571 72.6931 27.8106 
569 1 34.5408 70.855 25.2111 
570 1 36.1326 73.6122 25.2111 
571 1 36.1326 75.4503 27.8106 
572 1 34.5408 72.6931 27.8106 
573 1 37.7245 70.855 25.2111 
574 1 39.3163 73.6122 25.2111 
575 1 39.3163 75.4503 27.8106 
576 1 37.7245 72.6931 27.8106 
577 1 40.9082 70.855 25.2111 
578 1 42.5 73.6122 25.2111 
579 1 42.5 75.4503 27.8106 
580 1 40.9082 72.6931 27.8106 
581 1 44.0918 70.855 25.2111 
582 1 45.6837 73.6122 25.2111 
583 1 45.6837 75.4503 27.8106 
584 1 44.0918 72.6931 27.8106 
585 1 47.2755 70.855 25.2111 
586 1 48.8674 73.6122 25.2111 
587 1 48.8674 75.4503 27.8106 
588 1 47.2755 72.6931 27.8106 
589 1 50.4592 70.855 25.2111 
590 1 52.0511 73.6122 25.2111 
591 1 52.0511 75.4503 27.8106 
592 1 50.4592 72.6931 27.8106 
593 1 53.6429 70.855 25.2111 
594 1 55.2348 73.6122 25.2111 
595 1 55.2348 75.4503 27.8106 
596 1 53.6429 72.6931 27.8106 
597 1 56.8266 70.855 25.2111 
598 1 58.4185 73.6122 25.2111 
599 1 58.4185 75.4503 27.8106 
600 1 56.8266 72.6931 27.8106 
601 1 60.0103 70.855 25.2111 
602 1 61.6022 73.6122 25.2111 
603 1 61.6022 75.4503 27.8106 
604 1 60.0103 72.6931 27.8106 
605 1 63.194 70.855 25.2111 
606 1 64.7859 73.6122 25.2111 
607 1 64.7859 75.4503 27.8106 
608 1 63.194 72.6931 27.8106 
609 1 66.3777 70.855 25.2111 
610 1 67.9696 73.6122 25.2111 
611 1 67.9696 75.4503 27.8106 
612 1 66.3777 72.6931 27.8106 
613 1 15.4386 76.3693 25.2111 
614 1 17.0304 79.1265 25.2111 
615 1 17.0304 80.9646 27.8106 
616 1 15.4386 78.2074 27.8106 
617 1 18.6223 76.3693 25.2111 
618 1 20.2141 79.1265 25.2111 
619 1 20.2141 80.9646 27.8106 
620 1 18.6223 78.2074 27.8106 
621 1 21.806 76.3693 25.2111 
622 1 23.3978 79.1265 25.2111 
623 1 23.3978 80.9646 27.8106 
624 1 21.806 78.2074 27.8106 
625 1 24.9897 76.3693 25.2111 
626 1 26.5815 79.1265 25.2111 
627 1 26.5815 80.9646 27.8106 
628 1 24.9897 78.2074 27.8106 
629 1 28.1734 76.3693 25.2111 
630 1 29.7652 79.1265 25.2111 
631 1 29.7652 80.9646 27.8106 
632 1 28.1734 78.2074 27.8106 
633 1 31.3571 76.3693 25.2111 
634 1 32.9489 79.1265 25.2111 
635 1 32.9489 80.9646 27.8106 
636 1 31.3571 78.2074 27.8106 
637 1 34.5408 76.3693 25.2111 
638 1 36.1326 79.1265 25.2111 
639 1 36.1326 80.9646 27.8106 
640 1 34.5408 78.2074 27.8106 
641 1 37.7245 76.3693 25.2111 
642 1 39.3163 79.1265 25.2111 
643 1 39.3163 80.9646 27.8106 
644 1 37.7245 78.2074 27.8106 
645 1 40.9082 76.3693 25.2111 
646 1 42.5 79.1265 25.2111 
647 1 42.5 80.9646 27.8106 
648 1 40.9082 78.2074 27.8106 
649 1 44.0918 76.3693 25.2111 
650 1 45.6837 79.1265 25.2111 
651 1 45.6837 80.9646 27.8106 
652 1 44.0918 78.2074 27.8106 
653 1 47.2755 76.3693 25.2111 
654 1 48.8674 79.1265 25.2111 
655 1 48.8674 80.9646 27.8106 
656 1 47.2755 78.2074 27.8106 
657 1 50.4592 76.3693 25.2111 
658 1 52.0511 79.1265 25.2111 
659 1 52.0511 80.9646 27.8106 
660 1 50.4592 78.2074 27.8106 
661 1 53.6429 76.3693 25.2111 
662 1 55.2348 79.1265 25.2111 
663 1 55.2348 80.9646 27.8106 
664 1 53.6429 78.2074 27.8106 
665 1 56.8266 76.3693 25.2111 
666 1 58.4185 79.1265 25.2111 
667 1 58.4185 80.9646 27.8106 
668 1 56.8266 78.2074 27.8106 
669 1 60.0103 76.3693 25.2111 
670 1 61.6022 79.1265 25.2111 
671 1 61.6022 80.9646 27.8106 
672 1 60.0103 78.2074 27.8106 
673 1 63.194 76.3693 25.2111 
674 1 64.7859 79.1265 25.2111 
675 1 64.7859 80.9646 27.8106 
676 1 63.194 78.2074 27.8106 
677 1 66.3777 76.3693 25.2111 
678 1 67.9696 79.1265 25.2111 
679 1 67.9696 80.9646 27.8106 
680 1 66.3777 78.2074 27.8106 
681 1 15.4386 81.8836 25.2111 
682 1 17.0304 84.6408 25.2111 
683 1 17.0304 86.4789 27.8106 
684 1 15.4386 83.7218 27.8106 
685 1 18.6223 81.8836 25.2111 
686 1 20.2141 84.6408 25.2111 
687 1 20.2141 86.4789 27.8106 
688 1 18.6223 83.7218 27.8106 
689 1 21.806 81.8836 25.2111 
690 1 23.3978 84.6408 25.2111 
691 1 23.3978 86.4789 27.8106 
692 1 21.806 83.7218 27.8106 
693 1 24.9897 81.8836 25.2111 
694 1 26.5815 84.6408 25.2111 
695 1 26.5815 86.4789 27.8106 
696 1 24.9897 83.7218 27.8106 
697 1 28.1734 81.8836 25.2111 
698 1 29.7652 84.6408 25.2111 
699 1 29.7652 86.4789 27.8106 
700 1 28.1734 83.7218 27.8106 
701 1 31.3571 81.8836 25.2111 
702 1 32.9489 84.6408 25.2111 
703 1 32.9489 86.4789 27.8106 
704 1 31.3571 83.7218 27.8106 
705 1 34.5408 81.8836 25.2111 
706 1 36.1326 84.6408 25.2111 
707 1 36.1326 86.4789 27.8106 
708 1 34.5408 83.7218 27.8106 
709 1 37.7245 81.8836 25.2111 
710 1 39.3163 84.6408 25.2111 
711 1 39.3163 86.4789 27.8106 
712 1 37.7245 83.7218 27.8106 
713 1 40.9082 81.8836 25.2111 
714 1 42.5 84.6408 25.2111 
715 1 42.5 86.4789 27.8106 
716 1 40.9082 83.7218 27.8106 
717 1 44.0918 81.8836 25.2111 
718 1 45.6837 84.6408 25.2111 
719 1 45.6837 86.4789 27.8106 
720 1 44.0918 83.7218 27.8106 
721 1 47.2755 81.8836 25.2111 
722 1 48.8674 84.6408 25.2111 
723 1 48.8674 86.4789 27.8106 
724 1 47.2755 83.7218 27.8106 
725 1 50.4592 81.8836 25.2111 
726 1 52.0511 84.6408 25.2111 
727 1 52.0511 86.4789 27.8106 
728 1 50.4592 83.7218 27.8106 
729 1 53.6429 81.8836 25.2111 
730 1 55.2348 84.6408 25.2111 
731 1 55.2348 86.4789 27.8106 
732 1 53.6429 83.7218 27.8106 
733 1 56.8266 81.8836 25.2111 
734 1 58.4185 84.6408 25.2111 
735 1 58.4185 86.4789 27.8106 
736 1 56.8266 83.7218 27.8106 
737 1 60.0103 81.8836 25.2111 
738 1 61.6022 84.6408 25.2111 
739 1 61.6022 86.4789 27.8106 
740 1 60.0103 83.7218 27.8106 
741 1 63.194 81.8836 25.2111 
742 1 64.7859 84.6408 25.2111 
743 1 64.7859 86.4789 27.8106 
744 1 63.194 83.7218 27.8106 
745 1 66.3777 81.8836 25.2111 
746 1 67.9696 84.6408 25.2111 
747 1 67.9696 86.4789 27.8106 
748 1 66.3777 83.7218 27.8106 
749 1 15.4386 87.398 25.2111 
750 1 17.0304 90.1551 25.2111 
751 1 17.0304 91.9932 27.8106 
752 1 15.4386 89.2361 27.8106 
753 1 18.6223 87.398 25.2111 
754 1 20.2141 90.1551 25.2111 
755 1 20.2141 91.9932 27.8106 
756 1 18.6223 89.2361 27.8106 
757 1 21.806 87.398 25.2111 
758 1 23.3978 90.1551 25.2111 
759 1 23.3978 91.9932 27.8106 
760 1 21.806 89.2361 27.8106 
761 1 24.9897 87.398 25.2111 
762 1 26.5815 90.1551 25.2111 
763 1 26.5815 91.9932 27.8106 
764 1 24.9897 89.2361 27.8106 
765 1 28.1734 87.398 25.2111 
766 1 29.7652 90.1551 25.2111 
767 1 29.7652 91.9932 27.8106 
768 1 28.1734 89.2361 27.8106 
769 1 31.3571 87.398 25.2111 
770 1 32.9489 90.1551 25.2111 
771 1 32.9489 91.9932 27.8106 
772 1 31.3571 89.2361 27.8106 
773 1 34.5408 87.398 25.2111 
774 1 36.1326 90.1551 25.2111 
775 1 36.1326 91.9932 27.8106 
776 1 34.5408 89.2361 27.8106 
777 1 37.7245 87.398 25.2111 
778 1 39.3163 90.1551 25.2111 
779 1 39.3163 91.9932 27.8106 
780 1 37.7245 89.2361 27.8106 
781 1 40.9082 87.398 25.2111 
782 1 42.5 90.1551 25.2111 
783 1 42.5 91.9932 27.8106 
784 1 40.9082 89.2361 27.8106 
785 1 44.0918 87.398 25.2111 
786 1 45.6837 90.1551 25.2111 
787 1 45.6837 91.9932 27.8106 
788 1 44.0918 89.2361 27.8106 
789 1 47.2755 87.398 25.2111 
790 1 48.8674 90.1551 25.2111 
791 1 48.8674 91.9932 27.8106 
792 1 47.2755 89.2361 27.8106 
793 1 50.4592 87.398 25.2111 
794 1 52.0511 90.1551 25.2111 
795 1 52.0511 91.9932 27.8106 
796 1 50.4592 89.2361 27.8106 
797 1 53.6429 87.398 25.2111 
798 1 55.2348 90.1551 25.2111 
799 1 55.2348 91.9932 27.8106 
800 1 53.6429 89.2361 27.8106 
801 1 56.8266 87.398 25.2111 
802 1 58.4185 90.1551 25.2111 
803 1 58.4185 91.9932 27.8106 
804 1 56.8266 89.2361 27.8106 
805 1 60.0103 87.398 25.2111 
806 1 61.6022 90.1551 25.2111 
807 1 61.6022 91.9932 27.8106 
808 1 60.0103 89.2361 27.8106 
809 1 63.194 87.398 25.2111 
810 1 64.7859 90.1551 25.2111 
811 1 64.7859 91.9932 27.8106 
812 1 63.194 89.2361 27.8106 
813 1 66.3777 87.398 25.2111 
814 1 67.9696 90.1551 25.2111 
815 1 67.9696 91.9932 27.8106 
816 1 66.3777 89.2361 27.8106 
817 1 15.4386 92.9123 25.2111 
818 1 17.0304 95.6695 25.2111 
819 1 17.0304 97.5076 27.8106 
820 1 15.4386 94.7504 27.8106 
821 1 18.6223 92.9123 25.2111 
822 1 20.2141 95.6695 25.2111 
823 1 20.2141 97.5076 27.8106 
824 1 18.6223 94.7504 27.8106 
825 1 21.806 92.9123 25.2111 
826 1 23.3978 95.6695 25.2111 
827 1 23.3978 97.5076 27.8106 
828 1 21.806 94.7504 27.8106 
829 1 24.9897 92.9123 25.2111 
830 1 26.5815 95.6695 25.2111 
831 1 26.5815 97.5076 27.8106 
832 1 24.9897 94.7504 27.8106 
833 1 28.1734 92.9123 25.2111 
834 1 29.7652 95.6695 25.2111 
835 1 29.7652 97.5076 27.8106 
836 1 28.1734 94.7504 27.8106 
837 1 31.3571 92.9123 25.2111 
838 1 32.9489 95.6695 25.2111 
839 1 32.9489 97.5076 27.8106 
840 1 31.3571 94.7504 27.8106 
841 1 34.5408 92.9123 25.2111 
842 1 36.1326 95.6695 25.2111 
843 1 36.1326 97.5076 27.8106 
844 1 34.5408 94.7504 27.8106 
845 1 37.7245 92.9123 25.2111 
846 1 39.3163 95.6695 25.2111 
847 1 39.3163 97.5076 27.8106 
848 1 37.7245 94.7504 27.8106 
849 1 40.9082 92.9123 25.2111 
850 1 42.5 95.6695 25.2111 
851 1 42.5 97.5076 27.8106 
852 1 40.9082 94.7504 27.8106 
853 1 44.0918 92.9123 25.2111 
854 1 45.6837 95.6695 25.2111 
855 1 45.6837 97.5076 27.8106 
856 1 44.0918 94.7504 27.8106 
857 1 47.2755 92.9123 25.2111 
858 1 48.8674 95.6695 25.2111 
859 1 48.8674 97.5076 27.8106 
860 1 47.2755 94.7504 27.8106 
861 1 50.4592 92.9123 25.2111 
862 1 52.0511 95.6695 25.2111 
863 1 52.0511 97.5076 27.8106 
864 1 50.4592 94.7504 27.8106 
865 1 53.6429 92.9123 25.2111 
866 1 55.2348 95.6695 25.2111 
867 1 55.2348 97.5076 27.8106 
868 1 53.6429 94.7504 27.8106 
869 1 56.8266 92.9123 25.2111 
870 1 58.4185 95.6695 25.2111 
871 1 58.4185 97.5076 27.8106 
872 1 56.8266 94.7504 27.8106 
873 1 60.0103 92.9123 25.2111 
874 1 61.6022 95.6695 25.2111 
875 1 61.6022 97.5076 27.8106 
876 1 60.0103 94.7504 27.8106 
877 1 63.194 92.9123 25.2111 
878 1 64.7859 95.6695 25.2111 
879 1 64.7859 97.5076 27.8106 
880 1 63.194 94.7504 27.8106 
881 1 66.3777 92.9123 25.2111 
882 1 67.9696 95.6695 25.2111 
883 1 67.9696 97.5076 27.8106 
884 1 66.3777 94.7504 27.8106 
885 1 15.4386 98.4266 25.2111 
886 1 17.0304 101.184 25.2111 
887 1 17.0304 103.022 27.8106 
888 1 15.4386 100.265 27.8106 
889 1 18.6223 98.4266 25.2111 
890 1 20.2141 101.184 25.2111 
891 1 20.2141 103.022 27.8106 
892 1 18.6223 100.265 27.8106 
893 1 21.806 98.4266 25.2111 
894 1 23.3978 101.184 25.2111 
895 1 23.3978 103.022 27.8106 
896 1 21.806 100.265 27.8106 
897 1 24.9897 98.4266 25.2111 
898 1 26.5815 101.184 25.2111 
899 1 26.5815 103.022 27.8106 
900 1 24.9897 100.265 27.8106 
901 1 28.1734 98.4266 25.2111 
902 1 29.7652 101.184 25.2111 
903 1 29.7652 103.022 27.8106 
904 1 28.1734 100.265 27.8106 
905 1 31.3571 98.4266 25.2111 
906 1 32.9489 101.184 25.2111 
907 1 32.9489 103.022 27.8106 
908 1 31.3571 100.265 27.8106 
909 1 34.5408 98.4266 25.2111 
910 1 36.1326 101.184 25.2111 
911 1 36.1326 103.022 27.8106 
912 1 34.5408 100.265 27.8106 
913 1 37.7245 98.4266 25.2111 
914 1 39.3163 101.184 25.2111 
915 1 39.3163 103.022 27.8106 
916 1 37.7245 100.265 27.8106 
917 1 40.9082 98.4266 25.2111 
918 1 42.5 101.184 25.2111 
919 1 42.5 103.022 27.8106 
920 1 40.9082 100.265 27.8106 
921 1 44.0918 98.4266 25.2111 
922 1 45.6837 101.184 25.2111 
923 1 45.6837 103.022 27.8106 
924 1 44.0918 100.265 27.8106 
925 1 47.2755 98.4266 25.2111 
926 1 48.8674 101.184 25.2111 
927 1 48.8674 103.022 27.8106 
928 1 47.2755 100.265 27.8106 
929 1 50.4592 98.4266 25.2111 
930 1 52.0511 101.184 25.2111 
931 1 52.0511 103.022 27.8106 
932 1 50.4592 100.265 27.8106 
933 1 53.6429 98.4266 25.2111 
934 1 55.2348 101.184 25.2111 
935 1 55.2348 103.022 27.8106 
936 1 53.6429 100.265 27.8106 
937 1 56.8266 98.4266 25.2111 
938 1 58.4185 101.184 25.2111 
939 1 58.4185 103.022 27.8106 
940 1 56.8266 100.265 27.8106 
941 1 60.0103 98.4266 25.2111 
942 1 61.6022 101.184 25.2111 
943 1 61.6022 103.022 27.8106 
944 1 60.0103 100.265 27.8106 
945 1 63.194 98.4266 25.2111 
946 1 64.7859 101.184 25.2111 
947 1 64.7859 103.022 27.8106 
948 1 63.194 100.265 27.8106 
949 1 66.3777 98.4266 25.2111 
950 1 67.9696 101.184 25.2111 
951 1 67.9696 103.022 27.8106 
952 1 66.3777 100.265 27.8106 
953 1 15.4386 103.941 25.2111 
954 1 17.0304 106.698 25.2111 
955 1 17.0304 108.536 27.8106 
956 1 15.4386 105.779 27.8106 
957 1 18.6223 103.941 25.2111 
958 1 20.2141 106.698 25.2111 
959 1 20.2141 108.536 27.8106 
960 1 18.6223 105.779 27.8106 
961 1 21.806 103.941 25.2111 
962 1 23.3978 106.698 25.2111 
963 1 23.3978 108.536 27.8106 
964 1 21.806 105.779 27.8106 
965 1 24.9897 103.941 25.2111 
966 1 26.5815 106.698 25.2111 
967 1 26.5815 108.536 27.8106 
968 1 24.9897 105.779 27.8106 
969 1 28.1734 103.941 25.2111 
970 1 29.7652 106.698 25.2111 
971 1 29.7652 108.536 27.8106 