ITEM: TIMESTEP
88
ITEM: NUMBER OF ATOMS
19652
ITEM: BOX BOUNDS pp pp pp
1.8223856141187518e+01 6.6776143858812134e+01
3.1564644746362742e+01 1.1565967389699223e+02
2.9759432461196653e+01 1.0904498629651663e+02
ITEM: ATOMS id type xu yu zu 
1 1 18.2239 31.5646 29.7594 
2 1 19.6519 34.038 29.7594 
3 1 19.6519 35.687 32.0914 
4 1 18.2239 33.2136 32.0914 
5 1 21.0799 31.5646 29.7594 
6 1 22.5079 34.038 29.7594 
7 1 22.5079 35.687 32.0914 
8 1 21.0799 33.2136 32.0914 
9 1 23.9359 31.5646 29.7594 
10 1 25.3639 34.038 29.7594 
11 1 25.3639 35.687 32.0914 
12 1 23.9359 33.2136 32.0914 
13 1 26.7919 31.5646 29.7594 
14 1 28.2199 34.038 29.7594 
15 1 28.2199 35.687 32.0914 
16 1 26.7919 33.2136 32.0914 
17 1 29.6479 31.5646 29.7594 
18 1 31.0759 34.038 29.7594 
19 1 31.0759 35.687 32.0914 
20 1 29.6479 33.2136 32.0914 
21 1 32.5039 31.5646 29.7594 
22 1 33.9319 34.038 29.7594 
23 1 33.9319 35.687 32.0914 
24 1 32.5039 33.2136 32.0914 
25 1 35.36 31.5646 29.7594 
26 1 36.788 34.038 29.7594 
27 1 36.788 35.687 32.0914 
28 1 35.36 33.2136 32.0914 
29 1 38.216 31.5646 29.7594 
30 1 39.644 34.038 29.7594 
31 1 39.644 35.687 32.0914 
32 1 38.216 33.2136 32.0914 
33 1 41.072 31.5646 29.7594 
34 1 42.5 34.038 29.7594 
35 1 42.5 35.687 32.0914 
36 1 41.072 33.2136 32.0914 
37 1 43.928 31.5646 29.7594 
38 1 45.356 34.038 29.7594 
39 1 45.356 35.687 32.0914 
40 1 43.928 33.2136 32.0914 
41 1 46.784 31.5646 29.7594 
42 1 48.212 34.038 29.7594 
43 1 48.212 35.687 32.0914 
44 1 46.784 33.2136 32.0914 
45 1 49.64 31.5646 29.7594 
46 1 51.0681 34.038 29.7594 
47 1 51.0681 35.687 32.0914 
48 1 49.64 33.2136 32.0914 
49 1 52.4961 31.5646 29.7594 
50 1 53.9241 34.038 29.7594 
51 1 53.9241 35.687 32.0914 
52 1 52.4961 33.2136 32.0914 
53 1 55.3521 31.5646 29.7594 
54 1 56.7801 34.038 29.7594 
55 1 56.7801 35.687 32.0914 
56 1 55.3521 33.2136 32.0914 
57 1 58.2081 31.5646 29.7594 
58 1 59.6361 34.038 29.7594 
59 1 59.6361 35.687 32.0914 
60 1 58.2081 33.2136 32.0914 
61 1 61.0641 31.5646 29.7594 
62 1 62.4921 34.038 29.7594 
63 1 62.4921 35.687 32.0914 
64 1 61.0641 33.2136 32.0914 
65 1 63.9201 31.5646 29.7594 
66 1 65.3481 34.038 29.7594 
67 1 65.3481 35.687 32.0914 
68 1 63.9201 33.2136 32.0914 
69 1 18.2239 36.5114 29.7594 
70 1 19.6519 38.9848 29.7594 
71 1 19.6519 40.6337 32.0914 
72 1 18.2239 38.1603 32.0914 
73 1 21.0799 36.5114 29.7594 
74 1 22.5079 38.9848 29.7594 
75 1 22.5079 40.6337 32.0914 
76 1 21.0799 38.1603 32.0914 
77 1 23.9359 36.5114 29.7594 
78 1 25.3639 38.9848 29.7594 
79 1 25.3639 40.6337 32.0914 
80 1 23.9359 38.1603 32.0914 
81 1 26.7919 36.5114 29.7594 
82 1 28.2199 38.9848 29.7594 
83 1 28.2199 40.6337 32.0914 
84 1 26.7919 38.1603 32.0914 
85 1 29.6479 36.5114 29.7594 
86 1 31.0759 38.9848 29.7594 
87 1 31.0759 40.6337 32.0914 
88 1 29.6479 38.1603 32.0914 
89 1 32.5039 36.5114 29.7594 
90 1 33.9319 38.9848 29.7594 
91 1 33.9319 40.6337 32.0914 
92 1 32.5039 38.1603 32.0914 
93 1 35.36 36.5114 29.7594 
94 1 36.788 38.9848 29.7594 
95 1 36.788 40.6337 32.0914 
96 1 35.36 38.1603 32.0914 
97 1 38.216 36.5114 29.7594 
98 1 39.644 38.9848 29.7594 
99 1 39.644 40.6337 32.0914 
100 1 38.216 38.1603 32.0914 
101 1 41.072 36.5114 29.7594 
102 1 42.5 38.9848 29.7594 
103 1 42.5 40.6337 32.0914 
104 1 41.072 38.1603 32.0914 
105 1 43.928 36.5114 29.7594 
106 1 45.356 38.9848 29.7594 
107 1 45.356 40.6337 32.0914 
108 1 43.928 38.1603 32.0914 
109 1 46.784 36.5114 29.7594 
110 1 48.212 38.9848 29.7594 
111 1 48.212 40.6337 32.0914 
112 1 46.784 38.1603 32.0914 
113 1 49.64 36.5114 29.7594 
114 1 51.0681 38.9848 29.7594 
115 1 51.0681 40.6337 32.0914 
116 1 49.64 38.1603 32.0914 
117 1 52.4961 36.5114 29.7594 
118 1 53.9241 38.9848 29.7594 
119 1 53.9241 40.6337 32.0914 
120 1 52.4961 38.1603 32.0914 
121 1 55.3521 36.5114 29.7594 
122 1 56.7801 38.9848 29.7594 
123 1 56.7801 40.6337 32.0914 
124 1 55.3521 38.1603 32.0914 
125 1 58.2081 36.5114 29.7594 
126 1 59.6361 38.9848 29.7594 
127 1 59.6361 40.6337 32.0914 
128 1 58.2081 38.1603 32.0914 
129 1 61.0641 36.5114 29.7594 
130 1 62.4921 38.9848 29.7594 
131 1 62.4921 40.6337 32.0914 
132 1 61.0641 38.1603 32.0914 
133 1 63.9201 36.5114 29.7594 
134 1 65.3481 38.9848 29.7594 
135 1 65.3481 40.6337 32.0914 
136 1 63.9201 38.1603 32.0914 
137 1 18.2239 41.4582 29.7594 
138 1 19.6519 43.9316 29.7594 
139 1 19.6519 45.5805 32.0914 
140 1 18.2239 43.1071 32.0914 
141 1 21.0799 41.4582 29.7594 
142 1 22.5079 43.9316 29.7594 
143 1 22.5079 45.5805 32.0914 
144 1 21.0799 43.1071 32.0914 
145 1 23.9359 41.4582 29.7594 
146 1 25.3639 43.9316 29.7594 
147 1 25.3639 45.5805 32.0914 
148 1 23.9359 43.1071 32.0914 
149 1 26.7919 41.4582 29.7594 
150 1 28.2199 43.9316 29.7594 
151 1 28.2199 45.5805 32.0914 
152 1 26.7919 43.1071 32.0914 
153 1 29.6479 41.4582 29.7594 
154 1 31.0759 43.9316 29.7594 
155 1 31.0759 45.5805 32.0914 
156 1 29.6479 43.1071 32.0914 
157 1 32.5039 41.4582 29.7594 
158 1 33.9319 43.9316 29.7594 
159 1 33.9319 45.5805 32.0914 
160 1 32.5039 43.1071 32.0914 
161 1 35.36 41.4582 29.7594 
162 1 36.788 43.9316 29.7594 
163 1 36.788 45.5805 32.0914 
164 1 35.36 43.1071 32.0914 
165 1 38.216 41.4582 29.7594 
166 1 39.644 43.9316 29.7594 
167 1 39.644 45.5805 32.0914 
168 1 38.216 43.1071 32.0914 
169 1 41.072 41.4582 29.7594 
170 1 42.5 43.9316 29.7594 
171 1 42.5 45.5805 32.0914 
172 1 41.072 43.1071 32.0914 
173 1 43.928 41.4582 29.7594 
174 1 45.356 43.9316 29.7594 
175 1 45.356 45.5805 32.0914 
176 1 43.928 43.1071 32.0914 
177 1 46.784 41.4582 29.7594 
178 1 48.212 43.9316 29.7594 
179 1 48.212 45.5805 32.0914 
180 1 46.784 43.1071 32.0914 
181 1 49.64 41.4582 29.7594 
182 1 51.0681 43.9316 29.7594 
183 1 51.0681 45.5805 32.0914 
184 1 49.64 43.1071 32.0914 
185 1 52.4961 41.4582 29.7594 
186 1 53.9241 43.9316 29.7594 
187 1 53.9241 45.5805 32.0914 
188 1 52.4961 43.1071 32.0914 
189 1 55.3521 41.4582 29.7594 
190 1 56.7801 43.9316 29.7594 
191 1 56.7801 45.5805 32.0914 
192 1 55.3521 43.1071 32.0914 
193 1 58.2081 41.4582 29.7594 
194 1 59.6361 43.9316 29.7594 
195 1 59.6361 45.5805 32.0914 
196 1 58.2081 43.1071 32.0914 
197 1 61.0641 41.4582 29.7594 
198 1 62.4921 43.9316 29.7594 
199 1 62.4921 45.5805 32.0914 
200 1 61.0641 43.1071 32.0914 
201 1 63.9201 41.4582 29.7594 
202 1 65.3481 43.9316 29.7594 
203 1 65.3481 45.5805 32.0914 
204 1 63.9201 43.1071 32.0914 
205 1 18.2239 46.4049 29.7594 
206 1 19.6519 48.8783 29.7594 
207 1 19.6519 50.5272 32.0914 
208 1 18.2239 48.0539 32.0914 
209 1 21.0799 46.4049 29.7594 
210 1 22.5079 48.8783 29.7594 
211 1 22.5079 50.5272 32.0914 
212 1 21.0799 48.0539 32.0914 
213 1 23.9359 46.4049 29.7594 
214 1 25.3639 48.8783 29.7594 
215 1 25.3639 50.5272 32.0914 
216 1 23.9359 48.0539 32.0914 
217 1 26.7919 46.4049 29.7594 
218 1 28.2199 48.8783 29.7594 
219 1 28.2199 50.5272 32.0914 
220 1 26.7919 48.0539 32.0914 
221 1 29.6479 46.4049 29.7594 
222 1 31.0759 48.8783 29.7594 
223 1 31.0759 50.5272 32.0914 
224 1 29.6479 48.0539 32.0914 
225 1 32.5039 46.4049 29.7594 
226 1 33.9319 48.8783 29.7594 
227 1 33.9319 50.5272 32.0914 
228 1 32.5039 48.0539 32.0914 
229 1 35.36 46.4049 29.7594 
230 1 36.788 48.8783 29.7594 
231 1 36.788 50.5272 32.0914 
232 1 35.36 48.0539 32.0914 
233 1 38.216 46.4049 29.7594 
234 1 39.644 48.8783 29.7594 
235 1 39.644 50.5272 32.0914 
236 1 38.216 48.0539 32.0914 
237 1 41.072 46.4049 29.7594 
238 1 42.5 48.8783 29.7594 
239 1 42.5 50.5272 32.0914 
240 1 41.072 48.0539 32.0914 
241 1 43.928 46.4049 29.7594 
242 1 45.356 48.8783 29.7594 
243 1 45.356 50.5272 32.0914 
244 1 43.928 48.0539 32.0914 
245 1 46.784 46.4049 29.7594 
246 1 48.212 48.8783 29.7594 
247 1 48.212 50.5272 32.0914 
248 1 46.784 48.0539 32.0914 
249 1 49.64 46.4049 29.7594 
250 1 51.0681 48.8783 29.7594 
251 1 51.0681 50.5272 32.0914 
252 1 49.64 48.0539 32.0914 
253 1 52.4961 46.4049 29.7594 
254 1 53.9241 48.8783 29.7594 
255 1 53.9241 50.5272 32.0914 
256 1 52.4961 48.0539 32.0914 
257 1 55.3521 46.4049 29.7594 
258 1 56.7801 48.8783 29.7594 
259 1 56.7801 50.5272 32.0914 
260 1 55.3521 48.0539 32.0914 
261 1 58.2081 46.4049 29.7594 
262 1 59.6361 48.8783 29.7594 
263 1 59.6361 50.5272 32.0914 
264 1 58.2081 48.0539 32.0914 
265 1 61.0641 46.4049 29.7594 
266 1 62.4921 48.8783 29.7594 
267 1 62.4921 50.5272 32.0914 
268 1 61.0641 48.0539 32.0914 
269 1 63.9201 46.4049 29.7594 
270 1 65.3481 48.8783 29.7594 
271 1 65.3481 50.5272 32.0914 
272 1 63.9201 48.0539 32.0914 
273 1 18.2239 51.3517 29.7594 
274 1 19.6519 53.8251 29.7594 
275 1 19.6519 55.474 32.0914 
276 1 18.2239 53.0006 32.0914 
277 1 21.0799 51.3517 29.7594 
278 1 22.5079 53.8251 29.7594 
279 1 22.5079 55.474 32.0914 
280 1 21.0799 53.0006 32.0914 
281 1 23.9359 51.3517 29.7594 
282 1 25.3639 53.8251 29.7594 
283 1 25.3639 55.474 32.0914 
284 1 23.9359 53.0006 32.0914 
285 1 26.7919 51.3517 29.7594 
286 1 28.2199 53.8251 29.7594 
287 1 28.2199 55.474 32.0914 
288 1 26.7919 53.0006 32.0914 
289 1 29.6479 51.3517 29.7594 
290 1 31.0759 53.8251 29.7594 
291 1 31.0759 55.474 32.0914 
292 1 29.6479 53.0006 32.0914 
293 1 32.5039 51.3517 29.7594 
294 1 33.9319 53.8251 29.7594 
295 1 33.9319 55.474 32.0914 
296 1 32.5039 53.0006 32.0914 
297 1 35.36 51.3517 29.7594 
298 1 36.788 53.8251 29.7594 
299 1 36.788 55.474 32.0914 
300 1 35.36 53.0006 32.0914 
301 1 38.216 51.3517 29.7594 
302 1 39.644 53.8251 29.7594 
303 1 39.644 55.474 32.0914 
304 1 38.216 53.0006 32.0914 
305 1 41.072 51.3517 29.7594 
306 1 42.5 53.8251 29.7594 
307 1 42.5 55.474 32.0914 
308 1 41.072 53.0006 32.0914 
309 1 43.928 51.3517 29.7594 
310 1 45.356 53.8251 29.7594 
311 1 45.356 55.474 32.0914 
312 1 43.928 53.0006 32.0914 
313 1 46.784 51.3517 29.7594 
314 1 48.212 53.8251 29.7594 
315 1 48.212 55.474 32.0914 
316 1 46.784 53.0006 32.0914 
317 1 49.64 51.3517 29.7594 
318 1 51.0681 53.8251 29.7594 
319 1 51.0681 55.474 32.0914 
320 1 49.64 53.0006 32.0914 
321 1 52.4961 51.3517 29.7594 
322 1 53.9241 53.8251 29.7594 
323 1 53.9241 55.474 32.0914 
324 1 52.4961 53.0006 32.0914 
325 1 55.3521 51.3517 29.7594 
326 1 56.7801 53.8251 29.7594 
327 1 56.7801 55.474 32.0914 
328 1 55.3521 53.0006 32.0914 
329 1 58.2081 51.3517 29.7594 
330 1 59.6361 53.8251 29.7594 
331 1 59.6361 55.474 32.0914 
332 1 58.2081 53.0006 32.0914 
333 1 61.0641 51.3517 29.7594 
334 1 62.4921 53.8251 29.7594 
335 1 62.4921 55.474 32.0914 
336 1 61.0641 53.0006 32.0914 
337 1 63.9201 51.3517 29.7594 
338 1 65.3481 53.8251 29.7594 
339 1 65.3481 55.474 32.0914 
340 1 63.9201 53.0006 32.0914 
341 1 18.2239 56.2985 29.7594 
342 1 19.6519 58.7719 29.7594 
343 1 19.6519 60.4208 32.0914 
344 1 18.2239 57.9474 32.0914 
345 1 21.0799 56.2985 29.7594 
346 1 22.5079 58.7719 29.7594 
347 1 22.5079 60.4208 32.0914 
348 1 21.0799 57.9474 32.0914 
349 1 23.9359 56.2985 29.7594 
350 1 25.3639 58.7719 29.7594 
351 1 25.3639 60.4208 32.0914 
352 1 23.9359 57.9474 32.0914 
353 1 26.7919 56.2985 29.7594 
354 1 28.2199 58.7719 29.7594 
355 1 28.2199 60.4208 32.0914 
356 1 26.7919 57.9474 32.0914 
357 1 29.6479 56.2985 29.7594 
358 1 31.0759 58.7719 29.7594 
359 1 31.0759 60.4208 32.0914 
360 1 29.6479 57.9474 32.0914 
361 1 32.5039 56.2985 29.7594 
362 1 33.9319 58.7719 29.7594 
363 1 33.9319 60.4208 32.0914 
364 1 32.5039 57.9474 32.0914 
365 1 35.36 56.2985 29.7594 
366 1 36.788 58.7719 29.7594 
367 1 36.788 60.4208 32.0914 
368 1 35.36 57.9474 32.0914 
369 1 38.216 56.2985 29.7594 
370 1 39.644 58.7719 29.7594 
371 1 39.644 60.4208 32.0914 
372 1 38.216 57.9474 32.0914 
373 1 41.072 56.2985 29.7594 
374 1 42.5 58.7719 29.7594 
375 1 42.5 60.4208 32.0914 
376 1 41.072 57.9474 32.0914 
377 1 43.928 56.2985 29.7594 
378 1 45.356 58.7719 29.7594 
379 1 45.356 60.4208 32.0914 
380 1 43.928 57.9474 32.0914 
381 1 46.784 56.2985 29.7594 
382 1 48.212 58.7719 29.7594 
383 1 48.212 60.4208 32.0914 
384 1 46.784 57.9474 32.0914 
385 1 49.64 56.2985 29.7594 
386 1 51.0681 58.7719 29.7594 
387 1 51.0681 60.4208 32.0914 
388 1 49.64 57.9474 32.0914 
389 1 52.4961 56.2985 29.7594 
390 1 53.9241 58.7719 29.7594 
391 1 53.9241 60.4208 32.0914 
392 1 52.4961 57.9474 32.0914 
393 1 55.3521 56.2985 29.7594 
394 1 56.7801 58.7719 29.7594 
395 1 56.7801 60.4208 32.0914 
396 1 55.3521 57.9474 32.0914 
397 1 58.2081 56.2985 29.7594 
398 1 59.6361 58.7719 29.7594 
399 1 59.6361 60.4208 32.0914 
400 1 58.2081 57.9474 32.0914 
401 1 61.0641 56.2985 29.7594 
402 1 62.4921 58.7719 29.7594 
403 1 62.4921 60.4208 32.0914 
404 1 61.0641 57.9474 32.0914 
405 1 63.9201 56.2985 29.7594 
406 1 65.3481 58.7719 29.7594 
407 1 65.3481 60.4208 32.0914 
408 1 63.9201 57.9474 32.0914 
409 1 18.2239 61.2452 29.7594 
410 1 19.6519 63.7186 29.7594 
411 1 19.6519 65.3675 32.0914 
412 1 18.2239 62.8942 32.0914 
413 1 21.0799 61.2452 29.7594 
414 1 22.5079 63.7186 29.7594 
415 1 22.5079 65.3675 32.0914 
416 1 21.0799 62.8942 32.0914 
417 1 23.9359 61.2452 29.7594 
418 1 25.3639 63.7186 29.7594 
419 1 25.3639 65.3675 32.0914 
420 1 23.9359 62.8942 32.0914 
421 1 26.7919 61.2452 29.7594 
422 1 28.2199 63.7186 29.7594 
423 1 28.2199 65.3675 32.0914 
424 1 26.7919 62.8942 32.0914 
425 1 29.6479 61.2452 29.7594 
426 1 31.0759 63.7186 29.7594 
427 1 31.0759 65.3675 32.0914 
428 1 29.6479 62.8942 32.0914 
429 1 32.5039 61.2452 29.7594 
430 1 33.9319 63.7186 29.7594 
431 1 33.9319 65.3675 32.0914 
432 1 32.5039 62.8942 32.0914 
433 1 35.36 61.2452 29.7594 
434 1 36.788 63.7186 29.7594 
435 1 36.788 65.3675 32.0914 
436 1 35.36 62.8942 32.0914 
437 1 38.216 61.2452 29.7594 
438 1 39.644 63.7186 29.7594 
439 1 39.644 65.3675 32.0914 
440 1 38.216 62.8942 32.0914 
441 1 41.072 61.2452 29.7594 
442 1 42.5 63.7186 29.7594 
443 1 42.5 65.3675 32.0914 
444 1 41.072 62.8942 32.0914 
445 1 43.928 61.2452 29.7594 
446 1 45.356 63.7186 29.7594 
447 1 45.356 65.3675 32.0914 
448 1 43.928 62.8942 32.0914 
449 1 46.784 61.2452 29.7594 
450 1 48.212 63.7186 29.7594 
451 1 48.212 65.3675 32.0914 
452 1 46.784 62.8942 32.0914 
453 1 49.64 61.2452 29.7594 
454 1 51.0681 63.7186 29.7594 
455 1 51.0681 65.3675 32.0914 
456 1 49.64 62.8942 32.0914 
457 1 52.4961 61.2452 29.7594 
458 1 53.9241 63.7186 29.7594 
459 1 53.9241 65.3675 32.0914 
460 1 52.4961 62.8942 32.0914 
461 1 55.3521 61.2452 29.7594 
462 1 56.7801 63.7186 29.7594 
463 1 56.7801 65.3675 32.0914 
464 1 55.3521 62.8942 32.0914 
465 1 58.2081 61.2452 29.7594 
466 1 59.6361 63.7186 29.7594 
467 1 59.6361 65.3675 32.0914 
468 1 58.2081 62.8942 32.0914 
469 1 61.0641 61.2452 29.7594 
470 1 62.4921 63.7186 29.7594 
471 1 62.4921 65.3675 32.0914 
472 1 61.0641 62.8942 32.0914 
473 1 63.9201 61.2452 29.7594 
474 1 65.3481 63.7186 29.7594 
475 1 65.3481 65.3675 32.0914 
476 1 63.9201 62.8942 32.0914 
477 1 18.2239 66.192 29.7594 
478 1 19.6519 68.6654 29.7594 
479 1 19.6519 70.3143 32.0914 
480 1 18.2239 67.8409 32.0914 
481 1 21.0799 66.192 29.7594 
482 1 22.5079 68.6654 29.7594 
483 1 22.5079 70.3143 32.0914 
484 1 21.0799 67.8409 32.0914 
485 1 23.9359 66.192 29.7594 
486 1 25.3639 68.6654 29.7594 
487 1 25.3639 70.3143 32.0914 
488 1 23.9359 67.8409 32.0914 
489 1 26.7919 66.192 29.7594 
490 1 28.2199 68.6654 29.7594 
491 1 28.2199 70.3143 32.0914 
492 1 26.7919 67.8409 32.0914 
493 1 29.6479 66.192 29.7594 
494 1 31.0759 68.6654 29.7594 
495 1 31.0759 70.3143 32.0914 
496 1 29.6479 67.8409 32.0914 
497 1 32.5039 66.192 29.7594 
498 1 33.9319 68.6654 29.7594 
499 1 33.9319 70.3143 32.0914 
500 1 32.5039 67.8409 32.0914 
501 1 35.36 66.192 29.7594 
502 1 36.788 68.6654 29.7594 
503 1 36.788 70.3143 32.0914 
504 1 35.36 67.8409 32.0914 
505 1 38.216 66.192 29.7594 
506 1 39.644 68.6654 29.7594 
507 1 39.644 70.3143 32.0914 
508 1 38.216 67.8409 32.0914 
509 1 41.072 66.192 29.7594 
510 1 42.5 68.6654 29.7594 
511 1 42.5 70.3143 32.0914 
512 1 41.072 67.8409 32.0914 
513 1 43.928 66.192 29.7594 
514 1 45.356 68.6654 29.7594 
515 1 45.356 70.3143 32.0914 
516 1 43.928 67.8409 32.0914 
517 1 46.784 66.192 29.7594 
518 1 48.212 68.6654 29.7594 
519 1 48.212 70.3143 32.0914 
520 1 46.784 67.8409 32.0914 
521 1 49.64 66.192 29.7594 
522 1 51.0681 68.6654 29.7594 
523 1 51.0681 70.3143 32.0914 
524 1 49.64 67.8409 32.0914 
525 1 52.4961 66.192 29.7594 
526 1 53.9241 68.6654 29.7594 
527 1 53.9241 70.3143 32.0914 
528 1 52.4961 67.8409 32.0914 
529 1 55.3521 66.192 29.7594 
530 1 56.7801 68.6654 29.7594 
531 1 56.7801 70.3143 32.0914 
532 1 55.3521 67.8409 32.0914 
533 1 58.2081 66.192 29.7594 
534 1 59.6361 68.6654 29.7594 
535 1 59.6361 70.3143 32.0914 
536 1 58.2081 67.8409 32.0914 
537 1 61.0641 66.192 29.7594 
538 1 62.4921 68.6654 29.7594 
539 1 62.4921 70.3143 32.0914 
540 1 61.0641 67.8409 32.0914 
541 1 63.9201 66.192 29.7594 
542 1 65.3481 68.6654 29.7594 
543 1 65.3481 70.3143 32.0914 
544 1 63.9201 67.8409 32.0914 
545 1 18.2239 71.1388 29.7594 
546 1 19.6519 73.6122 29.7594 
547 1 19.6519 75.2611 32.0914 
548 1 18.2239 72.7877 32.0914 
549 1 21.0799 71.1388 29.7594 
550 1 22.5079 73.6122 29.7594 
551 1 22.5079 75.2611 32.0914 
552 1 21.0799 72.7877 32.0914 
553 1 23.9359 71.1388 29.7594 
554 1 25.3639 73.6122 29.7594 
555 1 25.3639 75.2611 32.0914 
556 1 23.9359 72.7877 32.0914 
557 1 26.7919 71.1388 29.7594 
558 1 28.2199 73.6122 29.7594 
559 1 28.2199 75.2611 32.0914 
560 1 26.7919 72.7877 32.0914 
561 1 29.6479 71.1388 29.7594 
562 1 31.0759 73.6122 29.7594 
563 1 31.0759 75.2611 32.0914 
564 1 29.6479 72.7877 32.0914 
565 1 32.5039 71.1388 29.7594 
566 1 33.9319 73.6122 29.7594 
567 1 33.9319 75.2611 32.0914 
568 1 32.5039 72.7877 32.0914 
569 1 35.36 71.1388 29.7594 
570 1 36.788 73.6122 29.7594 
571 1 36.788 75.2611 32.0914 
572 1 35.36 72.7877 32.0914 
573 1 38.216 71.1388 29.7594 
574 1 39.644 73.6122 29.7594 
575 1 39.644 75.2611 32.0914 
576 1 38.216 72.7877 32.0914 
577 1 41.072 71.1388 29.7594 
578 1 42.5 73.6122 29.7594 
579 1 42.5 75.2611 32.0914 
580 1 41.072 72.7877 32.0914 
581 1 43.928 71.1388 29.7594 
582 1 45.356 73.6122 29.7594 
583 1 45.356 75.2611 32.0914 
584 1 43.928 72.7877 32.0914 
585 1 46.784 71.1388 29.7594 
586 1 48.212 73.6122 29.7594 
587 1 48.212 75.2611 32.0914 
588 1 46.784 72.7877 32.0914 
589 1 49.64 71.1388 29.7594 
590 1 51.0681 73.6122 29.7594 
591 1 51.0681 75.2611 32.0914 
592 1 49.64 72.7877 32.0914 
593 1 52.4961 71.1388 29.7594 
594 1 53.9241 73.6122 29.7594 
595 1 53.9241 75.2611 32.0914 
596 1 52.4961 72.7877 32.0914 
597 1 55.3521 71.1388 29.7594 
598 1 56.7801 73.6122 29.7594 
599 1 56.7801 75.2611 32.0914 
600 1 55.3521 72.7877 32.0914 
601 1 58.2081 71.1388 29.7594 
602 1 59.6361 73.6122 29.7594 
603 1 59.6361 75.2611 32.0914 
604 1 58.2081 72.7877 32.0914 
605 1 61.0641 71.1388 29.7594 
606 1 62.4921 73.6122 29.7594 
607 1 62.4921 75.2611 32.0914 
608 1 61.0641 72.7877 32.0914 
609 1 63.9201 71.1388 29.7594 
610 1 65.3481 73.6122 29.7594 
611 1 65.3481 75.2611 32.0914 
612 1 63.9201 72.7877 32.0914 
613 1 18.2239 76.0855 29.7594 
614 1 19.6519 78.5589 29.7594 
615 1 19.6519 80.2078 32.0914 
616 1 18.2239 77.7345 32.0914 
617 1 21.0799 76.0855 29.7594 
618 1 22.5079 78.5589 29.7594 
619 1 22.5079 80.2078 32.0914 
620 1 21.0799 77.7345 32.0914 
621 1 23.9359 76.0855 29.7594 
622 1 25.3639 78.5589 29.7594 
623 1 25.3639 80.2078 32.0914 
624 1 23.9359 77.7345 32.0914 
625 1 26.7919 76.0855 29.7594 
626 1 28.2199 78.5589 29.7594 
627 1 28.2199 80.2078 32.0914 
628 1 26.7919 77.7345 32.0914 
629 1 29.6479 76.0855 29.7594 
630 1 31.0759 78.5589 29.7594 
631 1 31.0759 80.2078 32.0914 
632 1 29.6479 77.7345 32.0914 
633 1 32.5039 76.0855 29.7594 
634 1 33.9319 78.5589 29.7594 
635 1 33.9319 80.2078 32.0914 
636 1 32.5039 77.7345 32.0914 
637 1 35.36 76.0855 29.7594 
638 1 36.788 78.5589 29.7594 
639 1 36.788 80.2078 32.0914 
640 1 35.36 77.7345 32.0914 
641 1 38.216 76.0855 29.7594 
642 1 39.644 78.5589 29.7594 
643 1 39.644 80.2078 32.0914 
644 1 38.216 77.7345 32.0914 
645 1 41.072 76.0855 29.7594 
646 1 42.5 78.5589 29.7594 
647 1 42.5 80.2078 32.0914 
648 1 41.072 77.7345 32.0914 
649 1 43.928 76.0855 29.7594 
650 1 45.356 78.5589 29.7594 
651 1 45.356 80.2078 32.0914 
652 1 43.928 77.7345 32.0914 
653 1 46.784 76.0855 29.7594 
654 1 48.212 78.5589 29.7594 
655 1 48.212 80.2078 32.0914 
656 1 46.784 77.7345 32.0914 
657 1 49.64 76.0855 29.7594 
658 1 51.0681 78.5589 29.7594 
659 1 51.0681 80.2078 32.0914 
660 1 49.64 77.7345 32.0914 
661 1 52.4961 76.0855 29.7594 
662 1 53.9241 78.5589 29.7594 
663 1 53.9241 80.2078 32.0914 
664 1 52.4961 77.7345 32.0914 
665 1 55.3521 76.0855 29.7594 
666 1 56.7801 78.5589 29.7594 
667 1 56.7801 80.2078 32.0914 
668 1 55.3521 77.7345 32.0914 
669 1 58.2081 76.0855 29.7594 
670 1 59.6361 78.5589 29.7594 
671 1 59.6361 80.2078 32.0914 
672 1 58.2081 77.7345 32.0914 
673 1 61.0641 76.0855 29.7594 
674 1 62.4921 78.5589 29.7594 
675 1 62.4921 80.2078 32.0914 
676 1 61.0641 77.7345 32.0914 
677 1 63.9201 76.0855 29.7594 
678 1 65.3481 78.5589 29.7594 
679 1 65.3481 80.2078 32.0914 
680 1 63.9201 77.7345 32.0914 
681 1 18.2239 81.0323 29.7594 
682 1 19.6519 83.5057 29.7594 
683 1 19.6519 85.1546 32.0914 
684 1 18.2239 82.6812 32.0914 
685 1 21.0799 81.0323 29.7594 
686 1 22.5079 83.5057 29.7594 
687 1 22.5079 85.1546 32.0914 
688 1 21.0799 82.6812 32.0914 
689 1 23.9359 81.0323 29.7594 
690 1 25.3639 83.5057 29.7594 
691 1 25.3639 85.1546 32.0914 
692 1 23.9359 82.6812 32.0914 
693 1 26.7919 81.0323 29.7594 
694 1 28.2199 83.5057 29.7594 
695 1 28.2199 85.1546 32.0914 
696 1 26.7919 82.6812 32.0914 
697 1 29.6479 81.0323 29.7594 
698 1 31.0759 83.5057 29.7594 
699 1 31.0759 85.1546 32.0914 
700 1 29.6479 82.6812 32.0914 
701 1 32.5039 81.0323 29.7594 
702 1 33.9319 83.5057 29.7594 
703 1 33.9319 85.1546 32.0914 
704 1 32.5039 82.6812 32.0914 
705 1 35.36 81.0323 29.7594 
706 1 36.788 83.5057 29.7594 
707 1 36.788 85.1546 32.0914 
708 1 35.36 82.6812 32.0914 
709 1 38.216 81.0323 29.7594 
710 1 39.644 83.5057 29.7594 
711 1 39.644 85.1546 32.0914 
712 1 38.216 82.6812 32.0914 
713 1 41.072 81.0323 29.7594 
714 1 42.5 83.5057 29.7594 
715 1 42.5 85.1546 32.0914 
716 1 41.072 82.6812 32.0914 
717 1 43.928 81.0323 29.7594 
718 1 45.356 83.5057 29.7594 
719 1 45.356 85.1546 32.0914 
720 1 43.928 82.6812 32.0914 
721 1 46.784 81.0323 29.7594 
722 1 48.212 83.5057 29.7594 
723 1 48.212 85.1546 32.0914 
724 1 46.784 82.6812 32.0914 
725 1 49.64 81.0323 29.7594 
726 1 51.0681 83.5057 29.7594 
727 1 51.0681 85.1546 32.0914 
728 1 49.64 82.6812 32.0914 
729 1 52.4961 81.0323 29.7594 
730 1 53.9241 83.5057 29.7594 
731 1 53.9241 85.1546 32.0914 
732 1 52.4961 82.6812 32.0914 
733 1 55.3521 81.0323 29.7594 
734 1 56.7801 83.5057 29.7594 
735 1 56.7801 85.1546 32.0914 
736 1 55.3521 82.6812 32.0914 
737 1 58.2081 81.0323 29.7594 
738 1 59.6361 83.5057 29.7594 
739 1 59.6361 85.1546 32.0914 
740 1 58.2081 82.6812 32.0914 
741 1 61.0641 81.0323 29.7594 
742 1 62.4921 83.5057 29.7594 
743 1 62.4921 85.1546 32.0914 
744 1 61.0641 82.6812 32.0914 
745 1 63.9201 81.0323 29.7594 
746 1 65.3481 83.5057 29.7594 
747 1 65.3481 85.1546 32.0914 
748 1 63.9201 82.6812 32.0914 
749 1 18.2239 85.9791 29.7594 
750 1 19.6519 88.4525 29.7594 
751 1 19.6519 90.1014 32.0914 
752 1 18.2239 87.628 32.0914 
753 1 21.0799 85.9791 29.7594 
754 1 22.5079 88.4525 29.7594 
755 1 22.5079 90.1014 32.0914 
756 1 21.0799 87.628 32.0914 
757 1 23.9359 85.9791 29.7594 
758 1 25.3639 88.4525 29.7594 
759 1 25.3639 90.1014 32.0914 
760 1 23.9359 87.628 32.0914 
761 1 26.7919 85.9791 29.7594 
762 1 28.2199 88.4525 29.7594 
763 1 28.2199 90.1014 32.0914 
764 1 26.7919 87.628 32.0914 
765 1 29.6479 85.9791 29.7594 
766 1 31.0759 88.4525 29.7594 
767 1 31.0759 90.1014 32.0914 
768 1 29.6479 87.628 32.0914 
769 1 32.5039 85.9791 29.7594 
770 1 33.9319 88.4525 29.7594 
771 1 33.9319 90.1014 32.0914 
772 1 32.5039 87.628 32.0914 
773 1 35.36 85.9791 29.7594 
774 1 36.788 88.4525 29.7594 
775 1 36.788 90.1014 32.0914 
776 1 35.36 87.628 32.0914 
777 1 38.216 85.9791 29.7594 
778 1 39.644 88.4525 29.7594 
779 1 39.644 90.1014 32.0914 
780 1 38.216 87.628 32.0914 
781 1 41.072 85.9791 29.7594 
782 1 42.5 88.4525 29.7594 
783 1 42.5 90.1014 32.0914 
784 1 41.072 87.628 32.0914 
785 1 43.928 85.9791 29.7594 
786 1 45.356 88.4525 29.7594 
787 1 45.356 90.1014 32.0914 
788 1 43.928 87.628 32.0914 
789 1 46.784 85.9791 29.7594 
790 1 48.212 88.4525 29.7594 
791 1 48.212 90.1014 32.0914 
792 1 46.784 87.628 32.0914 
793 1 49.64 85.9791 29.7594 
794 1 51.0681 88.4525 29.7594 
795 1 51.0681 90.1014 32.0914 
796 1 49.64 87.628 32.0914 
797 1 52.4961 85.9791 29.7594 
798 1 53.9241 88.4525 29.7594 
799 1 53.9241 90.1014 32.0914 
800 1 52.4961 87.628 32.0914 
801 1 55.3521 85.9791 29.7594 
802 1 56.7801 88.4525 29.7594 
803 1 56.7801 90.1014 32.0914 
804 1 55.3521 87.628 32.0914 
805 1 58.2081 85.9791 29.7594 
806 1 59.6361 88.4525 29.7594 
807 1 59.6361 90.1014 32.0914 
808 1 58.2081 87.628 32.0914 
809 1 61.0641 85.9791 29.7594 
810 1 62.4921 88.4525 29.7594 
811 1 62.4921 90.1014 32.0914 
812 1 61.0641 87.628 32.0914 
813 1 63.9201 85.9791 29.7594 
814 1 65.3481 88.4525 29.7594 
815 1 65.3481 90.1014 32.0914 
816 1 63.9201 87.628 32.0914 
817 1 18.2239 90.9258 29.7594 
818 1 19.6519 93.3992 29.7594 
819 1 19.6519 95.0481 32.0914 
820 1 18.2239 92.5748 32.0914 
821 1 21.0799 90.9258 29.7594 
822 1 22.5079 93.3992 29.7594 
823 1 22.5079 95.0481 32.0914 
824 1 21.0799 92.5748 32.0914 
825 1 23.9359 90.9258 29.7594 
826 1 25.3639 93.3992 29.7594 
827 1 25.3639 95.0481 32.0914 
828 1 23.9359 92.5748 32.0914 
829 1 26.7919 90.9258 29.7594 
830 1 28.2199 93.3992 29.7594 
831 1 28.2199 95.0481 32.0914 
832 1 26.7919 92.5748 32.0914 
833 1 29.6479 90.9258 29.7594 
834 1 31.0759 93.3992 29.7594 
835 1 31.0759 95.0481 32.0914 
836 1 29.6479 92.5748 32.0914 
837 1 32.5039 90.9258 29.7594 
838 1 33.9319 93.3992 29.7594 
839 1 33.9319 95.0481 32.0914 
840 1 32.5039 92.5748 32.0914 
841 1 35.36 90.9258 29.7594 
842 1 36.788 93.3992 29.7594 
843 1 36.788 95.0481 32.0914 
844 1 35.36 92.5748 32.0914 
845 1 38.216 90.9258 29.7594 
846 1 39.644 93.3992 29.7594 
847 1 39.644 95.0481 32.0914 
848 1 38.216 92.5748 32.0914 
849 1 41.072 90.9258 29.7594 
850 1 42.5 93.3992 29.7594 
851 1 42.5 95.0481 32.0914 
852 1 41.072 92.5748 32.0914 
853 1 43.928 90.9258 29.7594 
854 1 45.356 93.3992 29.7594 
855 1 45.356 95.0481 32.0914 
856 1 43.928 92.5748 32.0914 
857 1 46.784 90.9258 29.7594 
858 1 48.212 93.3992 29.7594 
859 1 48.212 95.0481 32.0914 
860 1 46.784 92.5748 32.0914 
861 1 49.64 90.9258 29.7594 
862 1 51.0681 93.3992 29.7594 
863 1 51.0681 95.0481 32.0914 
864 1 49.64 92.5748 32.0914 
865 1 52.4961 90.9258 29.7594 
866 1 53.9241 93.3992 29.7594 
867 1 53.9241 95.0481 32.0914 
868 1 52.4961 92.5748 32.0914 
869 1 55.3521 90.9258 29.7594 
870 1 56.7801 93.3992 29.7594 
871 1 56.7801 95.0481 32.0914 
872 1 55.3521 92.5748 32.0914 
873 1 58.2081 90.9258 29.7594 
874 1 59.6361 93.3992 29.7594 
875 1 59.6361 95.0481 32.0914 
876 1 58.2081 92.5748 32.0914 
877 1 61.0641 90.9258 29.7594 
878 1 62.4921 93.3992 29.7594 
879 1 62.4921 95.0481 32.0914 
880 1 61.0641 92.5748 32.0914 
881 1 63.9201 90.9258 29.7594 
882 1 65.3481 93.3992 29.7594 
883 1 65.3481 95.0481 32.0914 
884 1 63.9201 92.5748 32.0914 
885 1 18.2239 95.8726 29.7594 
886 1 19.6519 98.346 29.7594 
887 1 19.6519 99.9949 32.0914 
888 1 18.2239 97.5215 32.0914 
889 1 21.0799 95.8726 29.7594 
890 1 22.5079 98.346 29.7594 
891 1 22.5079 99.9949 32.0914 
892 1 21.0799 97.5215 32.0914 
893 1 23.9359 95.8726 29.7594 
894 1 25.3639 98.346 29.7594 
895 1 25.3639 99.9949 32.0914 
896 1 23.9359 97.5215 32.0914 
897 1 26.7919 95.8726 29.7594 
898 1 28.2199 98.346 29.7594 
899 1 28.2199 99.9949 32.0914 
900 1 26.7919 97.5215 32.0914 
901 1 29.6479 95.8726 29.7594 
902 1 31.0759 98.346 29.7594 
903 1 31.0759 99.9949 32.0914 
904 1 29.6479 97.5215 32.0914 
905 1 32.5039 95.8726 29.7594 
906 1 33.9319 98.346 29.7594 
907 1 33.9319 99.9949 32.0914 
908 1 32.5039 97.5215 32.0914 
909 1 35.36 95.8726 29.7594 
910 1 36.788 98.346 29.7594 
911 1 36.788 99.9949 32.0914 
912 1 35.36 97.5215 32.0914 
913 1 38.216 95.8726 29.7594 
914 1 39.644 98.346 29.7594 
915 1 39.644 99.9949 32.0914 
916 1 38.216 97.5215 32.0914 
917 1 41.072 95.8726 29.7594 
918 1 42.5 98.346 29.7594 
919 1 42.5 99.9949 32.0914 
920 1 41.072 97.5215 32.0914 
921 1 43.928 95.8726 29.7594 
922 1 45.356 98.346 29.7594 
923 1 45.356 99.9949 32.0914 
924 1 43.928 97.5215 32.0914 
925 1 46.784 95.8726 29.7594 
926 1 48.212 98.346 29.7594 
927 1 48.212 99.9949 32.0914 
928 1 46.784 97.5215 32.0914 
929 1 49.64 95.8726 29.7594 
930 1 51.0681 98.346 29.7594 
931 1 51.0681 99.9949 32.0914 
932 1 49.64 97.5215 32.0914 
933 1 52.4961 95.8726 29.7594 
934 1 53.9241 98.346 29.7594 
935 1 53.9241 99.9949 32.0914 
936 1 52.4961 97.5215 32.0914 
937 1 55.3521 95.8726 29.7594 
938 1 56.7801 98.346 29.7594 
939 1 56.7801 99.9949 32.0914 
940 1 55.3521 97.5215 32.0914 
941 1 58.2081 95.8726 29.7594 
942 1 59.6361 98.346 29.7594 
943 1 59.6361 99.9949 32.0914 
944 1 58.2081 97.5215 32.0914 
945 1 61.0641 95.8726 29.7594 
946 1 62.4921 98.346 29.7594 
947 1 62.4921 99.9949 32.0914 
948 1 61.0641 97.5215 32.0914 
949 1 63.9201 95.8726 29.7594 
950 1 65.3481 98.346 29.7594 
951 1 65.3481 99.9949 32.0914 
952 1 63.9201 97.5215 32.0914 
953 1 18.2239 100.819 29.7594 
954 1 19.6519 103.293 29.7594 
955 1 19.6519 104.942 32.0914 
956 1 18.2239 102.468 32.0914 
957 1 21.0799 100.819 29.7594 
958 1 22.5079 103.293 29.7594 
959 1 22.5079 104.942 32.0914 
960 1 21.0799 102.468 32.0914 
961 1 23.9359 100.819 29.7594 
962 1 25.3639 103.293 29.7594 
963 1 25.3639 104.942 32.0914 
964 1 23.9359 102.468 32.0914 
965 1 26.7919 100.819 29.7594 
966 1 28.2199 103.293 29.7594 
967 1 28.2199 104.942 32.0914 
968 1 26.7919 102.468 32.0914 
969 1 29.6479 100.819 29.7594 
970 1 31.0759 103.293 29.7594 
971 1 31.0759 104.942 32.0914 
972 1 29.6479 102.468 32.0914 
973 1 32.5039 100.819 29.7594 
974 1 33.9319 103.293 29.7594 
975 1 33.9319 104.942 32.0914 
976 1 32.5039 102.468 32.0914 
977 1 35.36 100.819 29.7594 
978 1 36.788 103.293 29.7594 
979 1 36.788 104.942 32.0914 
980 1 35.36 102.468 32.0914 