ITEM: TIMESTEP
21
ITEM: NUMBER OF ATOMS
19652
ITEM: BOX BOUNDS pp pp pp
3.9180374831467697e+00 8.1081962516853125e+01
3.9180374831467697e+00 8.1081962516853125e+01
3.9180374831467697e+00 8.1081962516853125e+01
ITEM: ATOMS id type xu yu zu 
1 1 3.91804 3.91804 3.91804 
2 1 6.18756 6.18756 3.91804 
3 1 6.18756 3.91804 6.18756 
4 1 3.91804 6.18756 6.18756 
5 1 8.45709 3.91804 3.91804 
6 1 10.7266 6.18756 3.91804 
7 1 10.7266 3.91804 6.18756 
8 1 8.45709 6.18756 6.18756 
9 1 12.9961 3.91804 3.91804 
10 1 15.2657 6.18756 3.91804 
11 1 15.2657 3.91804 6.18756 
12 1 12.9961 6.18756 6.18756 
13 1 17.5352 3.91804 3.91804 
14 1 19.8047 6.18756 3.91804 
15 1 19.8047 3.91804 6.18756 
16 1 17.5352 6.18756 6.18756 
17 1 22.0743 3.91804 3.91804 
18 1 24.3438 6.18756 3.91804 
19 1 24.3438 3.91804 6.18756 
20 1 22.0743 6.18756 6.18756 
21 1 26.6133 3.91804 3.91804 
22 1 28.8828 6.18756 3.91804 
23 1 28.8828 3.91804 6.18756 
24 1 26.6133 6.18756 6.18756 
25 1 31.1524 3.91804 3.91804 
26 1 33.4219 6.18756 3.91804 
27 1 33.4219 3.91804 6.18756 
28 1 31.1524 6.18756 6.18756 
29 1 35.6914 3.91804 3.91804 
30 1 37.9609 6.18756 3.91804 
31 1 37.9609 3.91804 6.18756 
32 1 35.6914 6.18756 6.18756 
33 1 40.2305 3.91804 3.91804 
34 1 42.5 6.18756 3.91804 
35 1 42.5 3.91804 6.18756 
36 1 40.2305 6.18756 6.18756 
37 1 44.7695 3.91804 3.91804 
38 1 47.0391 6.18756 3.91804 
39 1 47.0391 3.91804 6.18756 
40 1 44.7695 6.18756 6.18756 
41 1 49.3086 3.91804 3.91804 
42 1 51.5781 6.18756 3.91804 
43 1 51.5781 3.91804 6.18756 
44 1 49.3086 6.18756 6.18756 
45 1 53.8476 3.91804 3.91804 
46 1 56.1172 6.18756 3.91804 
47 1 56.1172 3.91804 6.18756 
48 1 53.8476 6.18756 6.18756 
49 1 58.3867 3.91804 3.91804 
50 1 60.6562 6.18756 3.91804 
51 1 60.6562 3.91804 6.18756 
52 1 58.3867 6.18756 6.18756 
53 1 62.9257 3.91804 3.91804 
54 1 65.1953 6.18756 3.91804 
55 1 65.1953 3.91804 6.18756 
56 1 62.9257 6.18756 6.18756 
57 1 67.4648 3.91804 3.91804 
58 1 69.7343 6.18756 3.91804 
59 1 69.7343 3.91804 6.18756 
60 1 67.4648 6.18756 6.18756 
61 1 72.0039 3.91804 3.91804 
62 1 74.2734 6.18756 3.91804 
63 1 74.2734 3.91804 6.18756 
64 1 72.0039 6.18756 6.18756 
65 1 76.5429 3.91804 3.91804 
66 1 78.8124 6.18756 3.91804 
67 1 78.8124 3.91804 6.18756 
68 1 76.5429 6.18756 6.18756 
69 1 3.91804 8.45709 3.91804 
70 1 6.18756 10.7266 3.91804 
71 1 6.18756 8.45709 6.18756 
72 1 3.91804 10.7266 6.18756 
73 1 8.45709 8.45709 3.91804 
74 1 10.7266 10.7266 3.91804 
75 1 10.7266 8.45709 6.18756 
76 1 8.45709 10.7266 6.18756 
77 1 12.9961 8.45709 3.91804 
78 1 15.2657 10.7266 3.91804 
79 1 15.2657 8.45709 6.18756 
80 1 12.9961 10.7266 6.18756 
81 1 17.5352 8.45709 3.91804 
82 1 19.8047 10.7266 3.91804 
83 1 19.8047 8.45709 6.18756 
84 1 17.5352 10.7266 6.18756 
85 1 22.0743 8.45709 3.91804 
86 1 24.3438 10.7266 3.91804 
87 1 24.3438 8.45709 6.18756 
88 1 22.0743 10.7266 6.18756 
89 1 26.6133 8.45709 3.91804 
90 1 28.8828 10.7266 3.91804 
91 1 28.8828 8.45709 6.18756 
92 1 26.6133 10.7266 6.18756 
93 1 31.1524 8.45709 3.91804 
94 1 33.4219 10.7266 3.91804 
95 1 33.4219 8.45709 6.18756 
96 1 31.1524 10.7266 6.18756 
97 1 35.6914 8.45709 3.91804 
98 1 37.9609 10.7266 3.91804 
99 1 37.9609 8.45709 6.18756 
100 1 35.6914 10.7266 6.18756 
101 1 40.2305 8.45709 3.91804 
102 1 42.5 10.7266 3.91804 
103 1 42.5 8.45709 6.18756 
104 1 40.2305 10.7266 6.18756 
105 1 44.7695 8.45709 3.91804 
106 1 47.0391 10.7266 3.91804 
107 1 47.0391 8.45709 6.18756 
108 1 44.7695 10.7266 6.18756 
109 1 49.3086 8.45709 3.91804 
110 1 51.5781 10.7266 3.91804 
111 1 51.5781 8.45709 6.18756 
112 1 49.3086 10.7266 6.18756 
113 1 53.8476 8.45709 3.91804 
114 1 56.1172 10.7266 3.91804 
115 1 56.1172 8.45709 6.18756 
116 1 53.8476 10.7266 6.18756 
117 1 58.3867 8.45709 3.91804 
118 1 60.6562 10.7266 3.91804 
119 1 60.6562 8.45709 6.18756 
120 1 58.3867 10.7266 6.18756 
121 1 62.9257 8.45709 3.91804 
122 1 65.1953 10.7266 3.91804 
123 1 65.1953 8.45709 6.18756 
124 1 62.9257 10.7266 6.18756 
125 1 67.4648 8.45709 3.91804 
126 1 69.7343 10.7266 3.91804 
127 1 69.7343 8.45709 6.18756 
128 1 67.4648 10.7266 6.18756 
129 1 72.0039 8.45709 3.91804 
130 1 74.2734 10.7266 3.91804 
131 1 74.2734 8.45709 6.18756 
132 1 72.0039 10.7266 6.18756 
133 1 76.5429 8.45709 3.91804 
134 1 78.8124 10.7266 3.91804 
135 1 78.8124 8.45709 6.18756 
136 1 76.5429 10.7266 6.18756 
137 1 3.91804 12.9961 3.91804 
138 1 6.18756 15.2657 3.91804 
139 1 6.18756 12.9961 6.18756 
140 1 3.91804 15.2657 6.18756 
141 1 8.45709 12.9961 3.91804 
142 1 10.7266 15.2657 3.91804 
143 1 10.7266 12.9961 6.18756 
144 1 8.45709 15.2657 6.18756 
145 1 12.9961 12.9961 3.91804 
146 1 15.2657 15.2657 3.91804 
147 1 15.2657 12.9961 6.18756 
148 1 12.9961 15.2657 6.18756 
149 1 17.5352 12.9961 3.91804 
150 1 19.8047 15.2657 3.91804 
151 1 19.8047 12.9961 6.18756 
152 1 17.5352 15.2657 6.18756 
153 1 22.0743 12.9961 3.91804 
154 1 24.3438 15.2657 3.91804 
155 1 24.3438 12.9961 6.18756 
156 1 22.0743 15.2657 6.18756 
157 1 26.6133 12.9961 3.91804 
158 1 28.8828 15.2657 3.91804 
159 1 28.8828 12.9961 6.18756 
160 1 26.6133 15.2657 6.18756 
161 1 31.1524 12.9961 3.91804 
162 1 33.4219 15.2657 3.91804 
163 1 33.4219 12.9961 6.18756 
164 1 31.1524 15.2657 6.18756 
165 1 35.6914 12.9961 3.91804 
166 1 37.9609 15.2657 3.91804 
167 1 37.9609 12.9961 6.18756 
168 1 35.6914 15.2657 6.18756 
169 1 40.2305 12.9961 3.91804 
170 1 42.5 15.2657 3.91804 
171 1 42.5 12.9961 6.18756 
172 1 40.2305 15.2657 6.18756 
173 1 44.7695 12.9961 3.91804 
174 1 47.0391 15.2657 3.91804 
175 1 47.0391 12.9961 6.18756 
176 1 44.7695 15.2657 6.18756 
177 1 49.3086 12.9961 3.91804 
178 1 51.5781 15.2657 3.91804 
179 1 51.5781 12.9961 6.18756 
180 1 49.3086 15.2657 6.18756 
181 1 53.8476 12.9961 3.91804 
182 1 56.1172 15.2657 3.91804 
183 1 56.1172 12.9961 6.18756 
184 1 53.8476 15.2657 6.18756 
185 1 58.3867 12.9961 3.91804 
186 1 60.6562 15.2657 3.91804 
187 1 60.6562 12.9961 6.18756 
188 1 58.3867 15.2657 6.18756 
189 1 62.9257 12.9961 3.91804 
190 1 65.1953 15.2657 3.91804 
191 1 65.1953 12.9961 6.18756 
192 1 62.9257 15.2657 6.18756 
193 1 67.4648 12.9961 3.91804 
194 1 69.7343 15.2657 3.91804 
195 1 69.7343 12.9961 6.18756 
196 1 67.4648 15.2657 6.18756 
197 1 72.0039 12.9961 3.91804 
198 1 74.2734 15.2657 3.91804 
199 1 74.2734 12.9961 6.18756 
200 1 72.0039 15.2657 6.18756 
201 1 76.5429 12.9961 3.91804 
202 1 78.8124 15.2657 3.91804 
203 1 78.8124 12.9961 6.18756 
204 1 76.5429 15.2657 6.18756 
205 1 3.91804 17.5352 3.91804 
206 1 6.18756 19.8047 3.91804 
207 1 6.18756 17.5352 6.18756 
208 1 3.91804 19.8047 6.18756 
209 1 8.45709 17.5352 3.91804 
210 1 10.7266 19.8047 3.91804 
211 1 10.7266 17.5352 6.18756 
212 1 8.45709 19.8047 6.18756 
213 1 12.9961 17.5352 3.91804 
214 1 15.2657 19.8047 3.91804 
215 1 15.2657 17.5352 6.18756 
216 1 12.9961 19.8047 6.18756 
217 1 17.5352 17.5352 3.91804 
218 1 19.8047 19.8047 3.91804 
219 1 19.8047 17.5352 6.18756 
220 1 17.5352 19.8047 6.18756 
221 1 22.0743 17.5352 3.91804 
222 1 24.3438 19.8047 3.91804 
223 1 24.3438 17.5352 6.18756 
224 1 22.0743 19.8047 6.18756 
225 1 26.6133 17.5352 3.91804 
226 1 28.8828 19.8047 3.91804 
227 1 28.8828 17.5352 6.18756 
228 1 26.6133 19.8047 6.18756 
229 1 31.1524 17.5352 3.91804 
230 1 33.4219 19.8047 3.91804 
231 1 33.4219 17.5352 6.18756 
232 1 31.1524 19.8047 6.18756 
233 1 35.6914 17.5352 3.91804 
234 1 37.9609 19.8047 3.91804 
235 1 37.9609 17.5352 6.18756 
236 1 35.6914 19.8047 6.18756 
237 1 40.2305 17.5352 3.91804 
238 1 42.5 19.8047 3.91804 
239 1 42.5 17.5352 6.18756 
240 1 40.2305 19.8047 6.18756 
241 1 44.7695 17.5352 3.91804 
242 1 47.0391 19.8047 3.91804 
243 1 47.0391 17.5352 6.18756 
244 1 44.7695 19.8047 6.18756 
245 1 49.3086 17.5352 3.91804 
246 1 51.5781 19.8047 3.91804 
247 1 51.5781 17.5352 6.18756 
248 1 49.3086 19.8047 6.18756 
249 1 53.8476 17.5352 3.91804 
250 1 56.1172 19.8047 3.91804 
251 1 56.1172 17.5352 6.18756 
252 1 53.8476 19.8047 6.18756 
253 1 58.3867 17.5352 3.91804 
254 1 60.6562 19.8047 3.91804 
255 1 60.6562 17.5352 6.18756 
256 1 58.3867 19.8047 6.18756 
257 1 62.9257 17.5352 3.91804 
258 1 65.1953 19.8047 3.91804 
259 1 65.1953 17.5352 6.18756 
260 1 62.9257 19.8047 6.18756 
261 1 67.4648 17.5352 3.91804 
262 1 69.7343 19.8047 3.91804 
263 1 69.7343 17.5352 6.18756 
264 1 67.4648 19.8047 6.18756 
265 1 72.0039 17.5352 3.91804 
266 1 74.2734 19.8047 3.91804 
267 1 74.2734 17.5352 6.18756 
268 1 72.0039 19.8047 6.18756 
269 1 76.5429 17.5352 3.91804 
270 1 78.8124 19.8047 3.91804 
271 1 78.8124 17.5352 6.18756 
272 1 76.5429 19.8047 6.18756 
273 1 3.91804 22.0743 3.91804 
274 1 6.18756 24.3438 3.91804 
275 1 6.18756 22.0743 6.18756 
276 1 3.91804 24.3438 6.18756 
277 1 8.45709 22.0743 3.91804 
278 1 10.7266 24.3438 3.91804 
279 1 10.7266 22.0743 6.18756 
280 1 8.45709 24.3438 6.18756 
281 1 12.9961 22.0743 3.91804 
282 1 15.2657 24.3438 3.91804 
283 1 15.2657 22.0743 6.18756 
284 1 12.9961 24.3438 6.18756 
285 1 17.5352 22.0743 3.91804 
286 1 19.8047 24.3438 3.91804 
287 1 19.8047 22.0743 6.18756 
288 1 17.5352 24.3438 6.18756 
289 1 22.0743 22.0743 3.91804 
290 1 24.3438 24.3438 3.91804 
291 1 24.3438 22.0743 6.18756 
292 1 22.0743 24.3438 6.18756 
293 1 26.6133 22.0743 3.91804 
294 1 28.8828 24.3438 3.91804 
295 1 28.8828 22.0743 6.18756 
296 1 26.6133 24.3438 6.18756 
297 1 31.1524 22.0743 3.91804 
298 1 33.4219 24.3438 3.91804 
299 1 33.4219 22.0743 6.18756 
300 1 31.1524 24.3438 6.18756 
301 1 35.6914 22.0743 3.91804 
302 1 37.9609 24.3438 3.91804 
303 1 37.9609 22.0743 6.18756 
304 1 35.6914 24.3438 6.18756 
305 1 40.2305 22.0743 3.91804 
306 1 42.5 24.3438 3.91804 
307 1 42.5 22.0743 6.18756 
308 1 40.2305 24.3438 6.18756 
309 1 44.7695 22.0743 3.91804 
310 1 47.0391 24.3438 3.91804 
311 1 47.0391 22.0743 6.18756 
312 1 44.7695 24.3438 6.18756 
313 1 49.3086 22.0743 3.91804 
314 1 51.5781 24.3438 3.91804 
315 1 51.5781 22.0743 6.18756 
316 1 49.3086 24.3438 6.18756 
317 1 53.8476 22.0743 3.91804 
318 1 56.1172 24.3438 3.91804 
319 1 56.1172 22.0743 6.18756 
320 1 53.8476 24.3438 6.18756 
321 1 58.3867 22.0743 3.91804 
322 1 60.6562 24.3438 3.91804 
323 1 60.6562 22.0743 6.18756 
324 1 58.3867 24.3438 6.18756 
325 1 62.9257 22.0743 3.91804 
326 1 65.1953 24.3438 3.91804 
327 1 65.1953 22.0743 6.18756 
328 1 62.9257 24.3438 6.18756 
329 1 67.4648 22.0743 3.91804 
330 1 69.7343 24.3438 3.91804 
331 1 69.7343 22.0743 6.18756 
332 1 67.4648 24.3438 6.18756 
333 1 72.0039 22.0743 3.91804 
334 1 74.2734 24.3438 3.91804 
335 1 74.2734 22.0743 6.18756 
336 1 72.0039 24.3438 6.18756 
337 1 76.5429 22.0743 3.91804 
338 1 78.8124 24.3438 3.91804 
339 1 78.8124 22.0743 6.18756 
340 1 76.5429 24.3438 6.18756 
341 1 3.91804 26.6133 3.91804 
342 1 6.18756 28.8828 3.91804 
343 1 6.18756 26.6133 6.18756 
344 1 3.91804 28.8828 6.18756 
345 1 8.45709 26.6133 3.91804 
346 1 10.7266 28.8828 3.91804 
347 1 10.7266 26.6133 6.18756 
348 1 8.45709 28.8828 6.18756 
349 1 12.9961 26.6133 3.91804 
350 1 15.2657 28.8828 3.91804 
351 1 15.2657 26.6133 6.18756 
352 1 12.9961 28.8828 6.18756 
353 1 17.5352 26.6133 3.91804 
354 1 19.8047 28.8828 3.91804 
355 1 19.8047 26.6133 6.18756 
356 1 17.5352 28.8828 6.18756 
357 1 22.0743 26.6133 3.91804 
358 1 24.3438 28.8828 3.91804 
359 1 24.3438 26.6133 6.18756 
360 1 22.0743 28.8828 6.18756 
361 1 26.6133 26.6133 3.91804 
362 1 28.8828 28.8828 3.91804 
363 1 28.8828 26.6133 6.18756 
364 1 26.6133 28.8828 6.18756 
365 1 31.1524 26.6133 3.91804 
366 1 33.4219 28.8828 3.91804 
367 1 33.4219 26.6133 6.18756 
368 1 31.1524 28.8828 6.18756 
369 1 35.6914 26.6133 3.91804 
370 1 37.9609 28.8828 3.91804 
371 1 37.9609 26.6133 6.18756 
372 1 35.6914 28.8828 6.18756 
373 1 40.2305 26.6133 3.91804 
374 1 42.5 28.8828 3.91804 
375 1 42.5 26.6133 6.18756 
376 1 40.2305 28.8828 6.18756 
377 1 44.7695 26.6133 3.91804 
378 1 47.0391 28.8828 3.91804 
379 1 47.0391 26.6133 6.18756 
380 1 44.7695 28.8828 6.18756 
381 1 49.3086 26.6133 3.91804 
382 1 51.5781 28.8828 3.91804 
383 1 51.5781 26.6133 6.18756 
384 1 49.3086 28.8828 6.18756 
385 1 53.8476 26.6133 3.91804 
386 1 56.1172 28.8828 3.91804 
387 1 56.1172 26.6133 6.18756 
388 1 53.8476 28.8828 6.18756 
389 1 58.3867 26.6133 3.91804 
390 1 60.6562 28.8828 3.91804 
391 1 60.6562 26.6133 6.18756 
392 1 58.3867 28.8828 6.18756 
393 1 62.9257 26.6133 3.91804 
394 1 65.1953 28.8828 3.91804 
395 1 65.1953 26.6133 6.18756 
396 1 62.9257 28.8828 6.18756 
397 1 67.4648 26.6133 3.91804 
398 1 69.7343 28.8828 3.91804 
399 1 69.7343 26.6133 6.18756 
400 1 67.4648 28.8828 6.18756 
401 1 72.0039 26.6133 3.91804 
402 1 74.2734 28.8828 3.91804 
403 1 74.2734 26.6133 6.18756 
404 1 72.0039 28.8828 6.18756 
405 1 76.5429 26.6133 3.91804 
406 1 78.8124 28.8828 3.91804 
407 1 78.8124 26.6133 6.18756 
408 1 76.5429 28.8828 6.18756 
409 1 3.91804 31.1524 3.91804 
410 1 6.18756 33.4219 3.91804 
411 1 6.18756 31.1524 6.18756 
412 1 3.91804 33.4219 6.18756 
413 1 8.45709 31.1524 3.91804 
414 1 10.7266 33.4219 3.91804 
415 1 10.7266 31.1524 6.18756 
416 1 8.45709 33.4219 6.18756 
417 1 12.9961 31.1524 3.91804 
418 1 15.2657 33.4219 3.91804 
419 1 15.2657 31.1524 6.18756 
420 1 12.9961 33.4219 6.18756 
421 1 17.5352 31.1524 3.91804 
422 1 19.8047 33.4219 3.91804 
423 1 19.8047 31.1524 6.18756 
424 1 17.5352 33.4219 6.18756 
425 1 22.0743 31.1524 3.91804 
426 1 24.3438 33.4219 3.91804 
427 1 24.3438 31.1524 6.18756 
428 1 22.0743 33.4219 6.18756 
429 1 26.6133 31.1524 3.91804 
430 1 28.8828 33.4219 3.91804 
431 1 28.8828 31.1524 6.18756 
432 1 26.6133 33.4219 6.18756 
433 1 31.1524 31.1524 3.91804 
434 1 33.4219 33.4219 3.91804 
435 1 33.4219 31.1524 6.18756 
436 1 31.1524 33.4219 6.18756 
437 1 35.6914 31.1524 3.91804 
438 1 37.9609 33.4219 3.91804 
439 1 37.9609 31.1524 6.18756 
440 1 35.6914 33.4219 6.18756 
441 1 40.2305 31.1524 3.91804 
442 1 42.5 33.4219 3.91804 
443 1 42.5 31.1524 6.18756 
444 1 40.2305 33.4219 6.18756 
445 1 44.7695 31.1524 3.91804 
446 1 47.0391 33.4219 3.91804 
447 1 47.0391 31.1524 6.18756 
448 1 44.7695 33.4219 6.18756 
449 1 49.3086 31.1524 3.91804 
450 1 51.5781 33.4219 3.91804 
451 1 51.5781 31.1524 6.18756 
452 1 49.3086 33.4219 6.18756 
453 1 53.8476 31.1524 3.91804 
454 1 56.1172 33.4219 3.91804 
455 1 56.1172 31.1524 6.18756 
456 1 53.8476 33.4219 6.18756 
457 1 58.3867 31.1524 3.91804 
458 1 60.6562 33.4219 3.91804 
459 1 60.6562 31.1524 6.18756 
460 1 58.3867 33.4219 6.18756 
461 1 62.9257 31.1524 3.91804 
462 1 65.1953 33.4219 3.91804 
463 1 65.1953 31.1524 6.18756 
464 1 62.9257 33.4219 6.18756 
465 1 67.4648 31.1524 3.91804 
466 1 69.7343 33.4219 3.91804 
467 1 69.7343 31.1524 6.18756 
468 1 67.4648 33.4219 6.18756 
469 1 72.0039 31.1524 3.91804 
470 1 74.2734 33.4219 3.91804 
471 1 74.2734 31.1524 6.18756 
472 1 72.0039 33.4219 6.18756 
473 1 76.5429 31.1524 3.91804 
474 1 78.8124 33.4219 3.91804 
475 1 78.8124 31.1524 6.18756 
476 1 76.5429 33.4219 6.18756 
477 1 3.91804 35.6914 3.91804 
478 1 6.18756 37.9609 3.91804 
479 1 6.18756 35.6914 6.18756 
480 1 3.91804 37.9609 6.18756 
481 1 8.45709 35.6914 3.91804 
482 1 10.7266 37.9609 3.91804 
483 1 10.7266 35.6914 6.18756 
484 1 8.45709 37.9609 6.18756 
485 1 12.9961 35.6914 3.91804 
486 1 15.2657 37.9609 3.91804 
487 1 15.2657 35.6914 6.18756 
488 1 12.9961 37.9609 6.18756 
489 1 17.5352 35.6914 3.91804 
490 1 19.8047 37.9609 3.91804 
491 1 19.8047 35.6914 6.18756 
492 1 17.5352 37.9609 6.18756 
493 1 22.0743 35.6914 3.91804 
494 1 24.3438 37.9609 3.91804 
495 1 24.3438 35.6914 6.18756 
496 1 22.0743 37.9609 6.18756 
497 1 26.6133 35.6914 3.91804 
498 1 28.8828 37.9609 3.91804 
499 1 28.8828 35.6914 6.18756 
500 1 26.6133 37.9609 6.18756 
501 1 31.1524 35.6914 3.91804 
502 1 33.4219 37.9609 3.91804 
503 1 33.4219 35.6914 6.18756 
504 1 31.1524 37.9609 6.18756 
505 1 35.6914 35.6914 3.91804 
506 1 37.9609 37.9609 3.91804 
507 1 37.9609 35.6914 6.18756 
508 1 35.6914 37.9609 6.18756 
509 1 40.2305 35.6914 3.91804 
510 1 42.5 37.9609 3.91804 
511 1 42.5 35.6914 6.18756 
512 1 40.2305 37.9609 6.18756 
513 1 44.7695 35.6914 3.91804 
514 1 47.0391 37.9609 3.91804 
515 1 47.0391 35.6914 6.18756 
516 1 44.7695 37.9609 6.18756 
517 1 49.3086 35.6914 3.91804 
518 1 51.5781 37.9609 3.91804 
519 1 51.5781 35.6914 6.18756 
520 1 49.3086 37.9609 6.18756 
521 1 53.8476 35.6914 3.91804 
522 1 56.1172 37.9609 3.91804 
523 1 56.1172 35.6914 6.18756 
524 1 53.8476 37.9609 6.18756 
525 1 58.3867 35.6914 3.91804 
526 1 60.6562 37.9609 3.91804 
527 1 60.6562 35.6914 6.18756 
528 1 58.3867 37.9609 6.18756 
529 1 62.9257 35.6914 3.91804 
530 1 65.1953 37.9609 3.91804 
531 1 65.1953 35.6914 6.18756 
532 1 62.9257 37.9609 6.18756 
533 1 67.4648 35.6914 3.91804 
534 1 69.7343 37.9609 3.91804 
535 1 69.7343 35.6914 6.18756 
536 1 67.4648 37.9609 6.18756 
537 1 72.0039 35.6914 3.91804 
538 1 74.2734 37.9609 3.91804 
539 1 74.2734 35.6914 6.18756 
540 1 72.0039 37.9609 6.18756 
541 1 76.5429 35.6914 3.91804 
542 1 78.8124 37.9609 3.91804 
543 1 78.8124 35.6914 6.18756 
544 1 76.5429 37.9609 6.18756 
545 1 3.91804 40.2305 3.91804 
546 1 6.18756 42.5 3.91804 
547 1 6.18756 40.2305 6.18756 
548 1 3.91804 42.5 6.18756 
549 1 8.45709 40.2305 3.91804 
550 1 10.7266 42.5 3.91804 
551 1 10.7266 40.2305 6.18756 
552 1 8.45709 42.5 6.18756 
553 1 12.9961 40.2305 3.91804 
554 1 15.2657 42.5 3.91804 
555 1 15.2657 40.2305 6.18756 
556 1 12.9961 42.5 6.18756 
557 1 17.5352 40.2305 3.91804 
558 1 19.8047 42.5 3.91804 
559 1 19.8047 40.2305 6.18756 
560 1 17.5352 42.5 6.18756 
561 1 22.0743 40.2305 3.91804 
562 1 24.3438 42.5 3.91804 
563 1 24.3438 40.2305 6.18756 
564 1 22.0743 42.5 6.18756 
565 1 26.6133 40.2305 3.91804 
566 1 28.8828 42.5 3.91804 
567 1 28.8828 40.2305 6.18756 
568 1 26.6133 42.5 6.18756 
569 1 31.1524 40.2305 3.91804 
570 1 33.4219 42.5 3.91804 
571 1 33.4219 40.2305 6.18756 
572 1 31.1524 42.5 6.18756 
573 1 35.6914 40.2305 3.91804 
574 1 37.9609 42.5 3.91804 
575 1 37.9609 40.2305 6.18756 
576 1 35.6914 42.5 6.18756 
577 1 40.2305 40.2305 3.91804 
578 1 42.5 42.5 3.91804 
579 1 42.5 40.2305 6.18756 
580 1 40.2305 42.5 6.18756 
581 1 44.7695 40.2305 3.91804 
582 1 47.0391 42.5 3.91804 
583 1 47.0391 40.2305 6.18756 
584 1 44.7695 42.5 6.18756 
585 1 49.3086 40.2305 3.91804 
586 1 51.5781 42.5 3.91804 
587 1 51.5781 40.2305 6.18756 
588 1 49.3086 42.5 6.18756 
589 1 53.8476 40.2305 3.91804 
590 1 56.1172 42.5 3.91804 
591 1 56.1172 40.2305 6.18756 
592 1 53.8476 42.5 6.18756 
593 1 58.3867 40.2305 3.91804 
594 1 60.6562 42.5 3.91804 
595 1 60.6562 40.2305 6.18756 
596 1 58.3867 42.5 6.18756 
597 1 62.9257 40.2305 3.91804 
598 1 65.1953 42.5 3.91804 
599 1 65.1953 40.2305 6.18756 
600 1 62.9257 42.5 6.18756 
601 1 67.4648 40.2305 3.91804 
602 1 69.7343 42.5 3.91804 
603 1 69.7343 40.2305 6.18756 
604 1 67.4648 42.5 6.18756 
605 1 72.0039 40.2305 3.91804 
606 1 74.2734 42.5 3.91804 
607 1 74.2734 40.2305 6.18756 
608 1 72.0039 42.5 6.18756 
609 1 76.5429 40.2305 3.91804 
610 1 78.8124 42.5 3.91804 
611 1 78.8124 40.2305 6.18756 
612 1 76.5429 42.5 6.18756 
613 1 3.91804 44.7695 3.91804 
614 1 6.18756 47.0391 3.91804 
615 1 6.18756 44.7695 6.18756 
616 1 3.91804 47.0391 6.18756 
617 1 8.45709 44.7695 3.91804 
618 1 10.7266 47.0391 3.91804 
619 1 10.7266 44.7695 6.18756 
620 1 8.45709 47.0391 6.18756 
621 1 12.9961 44.7695 3.91804 
622 1 15.2657 47.0391 3.91804 
623 1 15.2657 44.7695 6.18756 
624 1 12.9961 47.0391 6.18756 
625 1 17.5352 44.7695 3.91804 
626 1 19.8047 47.0391 3.91804 
627 1 19.8047 44.7695 6.18756 
628 1 17.5352 47.0391 6.18756 
629 1 22.0743 44.7695 3.91804 
630 1 24.3438 47.0391 3.91804 
631 1 24.3438 44.7695 6.18756 
632 1 22.0743 47.0391 6.18756 
633 1 26.6133 44.7695 3.91804 
634 1 28.8828 47.0391 3.91804 
635 1 28.8828 44.7695 6.18756 
636 1 26.6133 47.0391 6.18756 
637 1 31.1524 44.7695 3.91804 
638 1 33.4219 47.0391 3.91804 
639 1 33.4219 44.7695 6.18756 
640 1 31.1524 47.0391 6.18756 
641 1 35.6914 44.7695 3.91804 
642 1 37.9609 47.0391 3.91804 
643 1 37.9609 44.7695 6.18756 
644 1 35.6914 47.0391 6.18756 
645 1 40.2305 44.7695 3.91804 
646 1 42.5 47.0391 3.91804 
647 1 42.5 44.7695 6.18756 
648 1 40.2305 47.0391 6.18756 
649 1 44.7695 44.7695 3.91804 
650 1 47.0391 47.0391 3.91804 
651 1 47.0391 44.7695 6.18756 
652 1 44.7695 47.0391 6.18756 
653 1 49.3086 44.7695 3.91804 
654 1 51.5781 47.0391 3.91804 
655 1 51.5781 44.7695 6.18756 
656 1 49.3086 47.0391 6.18756 
657 1 53.8476 44.7695 3.91804 
658 1 56.1172 47.0391 3.91804 
659 1 56.1172 44.7695 6.18756 
660 1 53.8476 47.0391 6.18756 
661 1 58.3867 44.7695 3.91804 
662 1 60.6562 47.0391 3.91804 
663 1 60.6562 44.7695 6.18756 
664 1 58.3867 47.0391 6.18756 
665 1 62.9257 44.7695 3.91804 
666 1 65.1953 47.0391 3.91804 
667 1 65.1953 44.7695 6.18756 
668 1 62.9257 47.0391 6.18756 
669 1 67.4648 44.7695 3.91804 
670 1 69.7343 47.0391 3.91804 
671 1 69.7343 44.7695 6.18756 
672 1 67.4648 47.0391 6.18756 
673 1 72.0039 44.7695 3.91804 
674 1 74.2734 47.0391 3.91804 
675 1 74.2734 44.7695 6.18756 
676 1 72.0039 47.0391 6.18756 
677 1 76.5429 44.7695 3.91804 
678 1 78.8124 47.0391 3.91804 
679 1 78.8124 44.7695 6.18756 
680 1 76.5429 47.0391 6.18756 
681 1 3.91804 49.3086 3.91804 
682 1 6.18756 51.5781 3.91804 
683 1 6.18756 49.3086 6.18756 
684 1 3.91804 51.5781 6.18756 
685 1 8.45709 49.3086 3.91804 
686 1 10.7266 51.5781 3.91804 
687 1 10.7266 49.3086 6.18756 
688 1 8.45709 51.5781 6.18756 
689 1 12.9961 49.3086 3.91804 
690 1 15.2657 51.5781 3.91804 
691 1 15.2657 49.3086 6.18756 
692 1 12.9961 51.5781 6.18756 
693 1 17.5352 49.3086 3.91804 
694 1 19.8047 51.5781 3.91804 
695 1 19.8047 49.3086 6.18756 
696 1 17.5352 51.5781 6.18756 
697 1 22.0743 49.3086 3.91804 
698 1 24.3438 51.5781 3.91804 
699 1 24.3438 49.3086 6.18756 
700 1 22.0743 51.5781 6.18756 
701 1 26.6133 49.3086 3.91804 
702 1 28.8828 51.5781 3.91804 
703 1 28.8828 49.3086 6.18756 
704 1 26.6133 51.5781 6.18756 
705 1 31.1524 49.3086 3.91804 
706 1 33.4219 51.5781 3.91804 
707 1 33.4219 49.3086 6.18756 
708 1 31.1524 51.5781 6.18756 
709 1 35.6914 49.3086 3.91804 
710 1 37.9609 51.5781 3.91804 
711 1 37.9609 49.3086 6.18756 
712 1 35.6914 51.5781 6.18756 
713 1 40.2305 49.3086 3.91804 
714 1 42.5 51.5781 3.91804 
715 1 42.5 49.3086 6.18756 
716 1 40.2305 51.5781 6.18756 
717 1 44.7695 49.3086 3.91804 
718 1 47.0391 51.5781 3.91804 
719 1 47.0391 49.3086 6.18756 
720 1 44.7695 51.5781 6.18756 
721 1 49.3086 49.3086 3.91804 
722 1 51.5781 51.5781 3.91804 
723 1 51.5781 49.3086 6.18756 
724 1 49.3086 51.5781 6.18756 
725 1 53.8476 49.3086 3.91804 
726 1 56.1172 51.5781 3.91804 
727 1 56.1172 49.3086 6.18756 
728 1 53.8476 51.5781 6.18756 
729 1 58.3867 49.3086 3.91804 
730 1 60.6562 51.5781 3.91804 
731 1 60.6562 49.3086 6.18756 
732 1 58.3867 51.5781 6.18756 
733 1 62.9257 49.3086 3.91804 
734 1 65.1953 51.5781 3.91804 
735 1 65.1953 49.3086 6.18756 
736 1 62.9257 51.5781 6.18756 
737 1 67.4648 49.3086 3.91804 
738 1 69.7343 51.5781 3.91804 
739 1 69.7343 49.3086 6.18756 
740 1 67.4648 51.5781 6.18756 
741 1 72.0039 49.3086 3.91804 
742 1 74.2734 51.5781 3.91804 
743 1 74.2734 49.3086 6.18756 
744 1 72.0039 51.5781 6.18756 
745 1 76.5429 49.3086 3.91804 
746 1 78.8124 51.5781 3.91804 
747 1 78.8124 49.3086 6.18756 
748 1 76.5429 51.5781 6.18756 
749 1 3.91804 53.8476 3.91804 
750 1 6.18756 56.1172 3.91804 
751 1 6.18756 53.8476 6.18756 
752 1 3.91804 56.1172 6.18756 
753 1 8.45709 53.8476 3.91804 
754 1 10.7266 56.1172 3.91804 
755 1 10.7266 53.8476 6.18756 
756 1 8.45709 56.1172 6.18756 
757 1 12.9961 53.8476 3.91804 
758 1 15.2657 56.1172 3.91804 
759 1 15.2657 53.8476 6.18756 
760 1 12.9961 56.1172 6.18756 
761 1 17.5352 53.8476 3.91804 
762 1 19.8047 56.1172 3.91804 
763 1 19.8047 53.8476 6.18756 
764 1 17.5352 56.1172 6.18756 
765 1 22.0743 53.8476 3.91804 
766 1 24.3438 56.1172 3.91804 
767 1 24.3438 53.8476 6.18756 
768 1 22.0743 56.1172 6.18756 
769 1 26.6133 53.8476 3.91804 
770 1 28.8828 56.1172 3.91804 
771 1 28.8828 53.8476 6.18756 
772 1 26.6133 56.1172 6.18756 
773 1 31.1524 53.8476 3.91804 
774 1 33.4219 56.1172 3.91804 
775 1 33.4219 53.8476 6.18756 
776 1 31.1524 56.1172 6.18756 
777 1 35.6914 53.8476 3.91804 
778 1 37.9609 56.1172 3.91804 
779 1 37.9609 53.8476 6.18756 
780 1 35.6914 56.1172 6.18756 
781 1 40.2305 53.8476 3.91804 
782 1 42.5 56.1172 3.91804 
783 1 42.5 53.8476 6.18756 
784 1 40.2305 56.1172 6.18756 
785 1 44.7695 53.8476 3.91804 
786 1 47.0391 56.1172 3.91804 
787 1 47.0391 53.8476 6.18756 
788 1 44.7695 56.1172 6.18756 
789 1 49.3086 53.8476 3.91804 
790 1 51.5781 56.1172 3.91804 
791 1 51.5781 53.8476 6.18756 
792 1 49.3086 56.1172 6.18756 
793 1 53.8476 53.8476 3.91804 
794 1 56.1172 56.1172 3.91804 
795 1 56.1172 53.8476 6.18756 
796 1 53.8476 56.1172 6.18756 
797 1 58.3867 53.8476 3.91804 
798 1 60.6562 56.1172 3.91804 
799 1 60.6562 53.8476 6.18756 
800 1 58.3867 56.1172 6.18756 
801 1 62.9257 53.8476 3.91804 
802 1 65.1953 56.1172 3.91804 
803 1 65.1953 53.8476 6.18756 
804 1 62.9257 56.1172 6.18756 
805 1 67.4648 53.8476 3.91804 
806 1 69.7343 56.1172 3.91804 
807 1 69.7343 53.8476 6.18756 
808 1 67.4648 56.1172 6.18756 
809 1 72.0039 53.8476 3.91804 
810 1 74.2734 56.1172 3.91804 
811 1 74.2734 53.8476 6.18756 
812 1 72.0039 56.1172 6.18756 
813 1 76.5429 53.8476 3.91804 
814 1 78.8124 56.1172 3.91804 
815 1 78.8124 53.8476 6.18756 
816 1 76.5429 56.1172 6.18756 
817 1 3.91804 58.3867 3.91804 
818 1 6.18756 60.6562 3.91804 
819 1 6.18756 58.3867 6.18756 
820 1 3.91804 60.6562 6.18756 
821 1 8.45709 58.3867 3.91804 
822 1 10.7266 60.6562 3.91804 
823 1 10.7266 58.3867 6.18756 
824 1 8.45709 60.6562 6.18756 
825 1 12.9961 58.3867 3.91804 
826 1 15.2657 60.6562 3.91804 
827 1 15.2657 58.3867 6.18756 
828 1 12.9961 60.6562 6.18756 
829 1 17.5352 58.3867 3.91804 
830 1 19.8047 60.6562 3.91804 
831 1 19.8047 58.3867 6.18756 
832 1 17.5352 60.6562 6.18756 
833 1 22.0743 58.3867 3.91804 
834 1 24.3438 60.6562 3.91804 
835 1 24.3438 58.3867 6.18756 
836 1 22.0743 60.6562 6.18756 
837 1 26.6133 58.3867 3.91804 
838 1 28.8828 60.6562 3.91804 
839 1 28.8828 58.3867 6.18756 
840 1 26.6133 60.6562 6.18756 
841 1 31.1524 58.3867 3.91804 
842 1 33.4219 60.6562 3.91804 
843 1 33.4219 58.3867 6.18756 
844 1 31.1524 60.6562 6.18756 
845 1 35.6914 58.3867 3.91804 
846 1 37.9609 60.6562 3.91804 
847 1 37.9609 58.3867 6.18756 
848 1 35.6914 60.6562 6.18756 
849 1 40.2305 58.3867 3.91804 
850 1 42.5 60.6562 3.91804 
851 1 42.5 58.3867 6.18756 
852 1 40.2305 60.6562 6.18756 
853 1 44.7695 58.3867 3.91804 
854 1 47.0391 60.6562 3.91804 
855 1 47.0391 58.3867 6.18756 
856 1 44.7695 60.6562 6.18756 
857 1 49.3086 58.3867 3.91804 
858 1 51.5781 60.6562 3.91804 
859 1 51.5781 58.3867 6.18756 
860 1 49.3086 60.6562 6.18756 
861 1 53.8476 58.3867 3.91804 
862 1 56.1172 60.6562 3.91804 
863 1 56.1172 58.3867 6.18756 
864 1 53.8476 60.6562 6.18756 
865 1 58.3867 58.3867 3.91804 
866 1 60.6562 60.6562 3.91804 
867 1 60.6562 58.3867 6.18756 
868 1 58.3867 60.6562 6.18756 
869 1 62.9257 58.3867 3.91804 
870 1 65.1953 60.6562 3.91804 
871 1 65.1953 58.3867 6.18756 
872 1 62.9257 60.6562 6.18756 
873 1 67.4648 58.3867 3.91804 
874 1 69.7343 60.6562 3.91804 
875 1 69.7343 58.3867 6.18756 
876 1 67.4648 60.6562 6.18756 
877 1 72.0039 58.3867 3.91804 
878 1 74.2734 60.6562 3.91804 
879 1 74.2734 58.3867 6.18756 
880 1 72.0039 60.6562 6.18756 
881 1 76.5429 58.3867 3.91804 
882 1 78.8124 60.6562 3.91804 
883 1 78.8124 58.3867 6.18756 
884 1 76.5429 60.6562 6.18756 
885 1 3.91804 62.9257 3.91804 
886 1 6.18756 65.1953 3.91804 
887 1 6.18756 62.9257 6.18756 
888 1 3.91804 65.1953 6.18756 
889 1 8.45709 62.9257 3.91804 
890 1 10.7266 65.1953 3.91804 
891 1 10.7266 62.9257 6.18756 
892 1 8.45709 65.1953 6.18756 
893 1 12.9961 62.9257 3.91804 
894 1 15.2657 65.1953 3.91804 
895 1 15.2657 62.9257 6.18756 
896 1 12.9961 65.1953 6.18756 
897 1 17.5352 62.9257 3.91804 
898 1 19.8047 65.1953 3.91804 
899 1 19.8047 62.9257 6.18756 
900 1 17.5352 65.1953 6.18756 
901 1 22.0743 62.9257 3.91804 
902 1 24.3438 65.1953 3.91804 
903 1 24.3438 62.9257 6.18756 
904 1 22.0743 65.1953 6.18756 
905 1 26.6133 62.9257 3.91804 
906 1 28.8828 65.1953 3.91804 
907 1 28.8828 62.9257 6.18756 
908 1 26.6133 65.1953 6.18756 
909 1 31.1524 62.9257 3.91804 
910 1 33.4219 65.1953 3.91804 
911 1 33.4219 62.9257 6.18756 
912 1 31.1524 65.1953 6.18756 
913 1 35.6914 62.9257 3.91804 
914 1 37.9609 65.1953 3.91804 
915 1 37.9609 62.9257 6.18756 
916 1 35.6914 65.1953 6.18756 
917 1 40.2305 62.9257 3.91804 
918 1 42.5 65.1953 3.91804 
919 1 42.5 62.9257 6.18756 
920 1 40.2305 65.1953 6.18756 
921 1 44.7695 62.9257 3.91804 
922 1 47.0391 65.1953 3.91804 
923 1 47.0391 62.9257 6.18756 
924 1 44.7695 65.1953 6.18756 
925 1 49.3086 62.9257 3.91804 
926 1 51.5781 65.1953 3.91804 
927 1 51.5781 62.9257 6.18756 
928 1 49.3086 65.1953 6.18756 
929 1 53.8476 62.9257 3.91804 
930 1 56.1172 65.1953 3.91804 
931 1 56.1172 62.9257 6.18756 
932 1 53.8476 65.1953 6.18756 
933 1 58.3867 62.9257 3.91804 
934 1 60.6562 65.1953 3.91804 
935 1 60.6562 62.9257 6.18756 
936 1 58.3867 65.1953 6.18756 
937 1 62.9257 62.9257 3.91804 
938 1 65.1953 65.1953 3.91804 
939 1 65.1953 62.9257 6.18756 
940 1 62.9257 65.1953 6.18756 
941 1 67.4648 62.9257 3.91804 
942 1 69.7343 65.1953 3.91804 
943 1 69.7343 62.9257 6.18756 
944 1 67.4648 65.1953 6.18756 
945 1 72.0039 62.9257 3.91804 
946 1 74.2734 65.1953 3.91804 
947 1 74.2734 62.9257 6.18756 
948 1 72.0039 65.1953 6.18756 
949 1 76.5429 62.9257 3.91804 
950 1 78.8124 65.1953 3.91804 
951 1 78.8124 62.9257 6.18756 
952 1 76.5429 65.1953 6.18756 
953 1 3.91804 67.4648 3.91804 
954 1 6.18756 69.7343 3.91804 
955 1 6.18756 67.4648 6.18756 
956 1 3.91804 69.7343 6.18756 
957 1 8.45709 67.4648 3.91804 
958 1 10.7266 69.7343 3.91804 
959 1 10.7266 67.4648 6.18756 
960 1 8.45709 69.7343 6.18756 
961 1 12.9961 67.4648 3.91804 
962 1 15.2657 69.7343 3.91804 
963 1 15.2657 67.4648 6.18756 
964 1 12.9961 69.7343 6.18756 
965 1 17.5352 67.4648 3.91804 
966 1 19.8047 69.7343 3.91804 
967 1 19.8047 67.4648 6.18756 
968 1 17.5352 69.7343 6.18756 
969 1 22.0743 67.4648 3.91804 