ITEM: TIMESTEP
102
ITEM: NUMBER OF ATOMS
19652
ITEM: BOX BOUNDS pp pp pp
2.0870761356805858e+01 6.4129238643193830e+01
3.6149219062632667e+01 1.1107509958072222e+02
3.4081810578380875e+01 1.0472260817933243e+02
ITEM: ATOMS id type xu yu zu 
1 2 20.8708 36.1492 34.0818 
2 2 22.1431 38.3529 34.0818 
3 2 22.1431 39.8221 36.1595 
4 2 20.8708 37.6184 36.1595 
5 2 23.4154 36.1492 34.0818 
6 2 24.6877 38.3529 34.0818 
7 2 24.6877 39.8221 36.1595 
8 2 23.4154 37.6184 36.1595 
9 2 25.96 36.1492 34.0818 
10 2 27.2323 38.3529 34.0818 
11 2 27.2323 39.8221 36.1595 
12 2 25.96 37.6184 36.1595 
13 2 28.5046 36.1492 34.0818 
14 2 29.7769 38.3529 34.0818 
15 2 29.7769 39.8221 36.1595 
16 2 28.5046 37.6184 36.1595 
17 2 31.0492 36.1492 34.0818 
18 2 32.3215 38.3529 34.0818 
19 2 32.3215 39.8221 36.1595 
20 2 31.0492 37.6184 36.1595 
21 2 33.5938 36.1492 34.0818 
22 2 34.8662 38.3529 34.0818 
23 2 34.8662 39.8221 36.1595 
24 2 33.5938 37.6184 36.1595 
25 2 36.1385 36.1492 34.0818 
26 2 37.4108 38.3529 34.0818 
27 2 37.4108 39.8221 36.1595 
28 2 36.1385 37.6184 36.1595 
29 2 38.6831 36.1492 34.0818 
30 2 39.9554 38.3529 34.0818 
31 2 39.9554 39.8221 36.1595 
32 2 38.6831 37.6184 36.1595 
33 2 41.2277 36.1492 34.0818 
34 2 42.5 38.3529 34.0818 
35 2 42.5 39.8221 36.1595 
36 2 41.2277 37.6184 36.1595 
37 2 43.7723 36.1492 34.0818 
38 2 45.0446 38.3529 34.0818 
39 2 45.0446 39.8221 36.1595 
40 2 43.7723 37.6184 36.1595 
41 2 46.3169 36.1492 34.0818 
42 2 47.5892 38.3529 34.0818 
43 2 47.5892 39.8221 36.1595 
44 2 46.3169 37.6184 36.1595 
45 2 48.8615 36.1492 34.0818 
46 2 50.1338 38.3529 34.0818 
47 2 50.1338 39.8221 36.1595 
48 2 48.8615 37.6184 36.1595 
49 2 51.4062 36.1492 34.0818 
50 2 52.6785 38.3529 34.0818 
51 2 52.6785 39.8221 36.1595 
52 2 51.4062 37.6184 36.1595 
53 2 53.9508 36.1492 34.0818 
54 2 55.2231 38.3529 34.0818 
55 2 55.2231 39.8221 36.1595 
56 2 53.9508 37.6184 36.1595 
57 2 56.4954 36.1492 34.0818 
58 2 57.7677 38.3529 34.0818 
59 2 57.7677 39.8221 36.1595 
60 2 56.4954 37.6184 36.1595 
61 2 59.04 36.1492 34.0818 
62 2 60.3123 38.3529 34.0818 
63 2 60.3123 39.8221 36.1595 
64 2 59.04 37.6184 36.1595 
65 2 61.5846 36.1492 34.0818 
66 2 62.8569 38.3529 34.0818 
67 2 62.8569 39.8221 36.1595 
68 2 61.5846 37.6184 36.1595 
69 2 20.8708 40.5566 34.0818 
70 2 22.1431 42.7603 34.0818 
71 2 22.1431 44.2295 36.1595 
72 2 20.8708 42.0258 36.1595 
73 2 23.4154 40.5566 34.0818 
74 2 24.6877 42.7603 34.0818 
75 2 24.6877 44.2295 36.1595 
76 2 23.4154 42.0258 36.1595 
77 2 25.96 40.5566 34.0818 
78 2 27.2323 42.7603 34.0818 
79 2 27.2323 44.2295 36.1595 
80 2 25.96 42.0258 36.1595 
81 2 28.5046 40.5566 34.0818 
82 2 29.7769 42.7603 34.0818 
83 2 29.7769 44.2295 36.1595 
84 2 28.5046 42.0258 36.1595 
85 2 31.0492 40.5566 34.0818 
86 2 32.3215 42.7603 34.0818 
87 2 32.3215 44.2295 36.1595 
88 2 31.0492 42.0258 36.1595 
89 2 33.5938 40.5566 34.0818 
90 2 34.8662 42.7603 34.0818 
91 2 34.8662 44.2295 36.1595 
92 2 33.5938 42.0258 36.1595 
93 2 36.1385 40.5566 34.0818 
94 2 37.4108 42.7603 34.0818 
95 2 37.4108 44.2295 36.1595 
96 2 36.1385 42.0258 36.1595 
97 2 38.6831 40.5566 34.0818 
98 2 39.9554 42.7603 34.0818 
99 2 39.9554 44.2295 36.1595 
100 2 38.6831 42.0258 36.1595 
101 2 41.2277 40.5566 34.0818 
102 2 42.5 42.7603 34.0818 
103 2 42.5 44.2295 36.1595 
104 2 41.2277 42.0258 36.1595 
105 2 43.7723 40.5566 34.0818 
106 2 45.0446 42.7603 34.0818 
107 2 45.0446 44.2295 36.1595 
108 2 43.7723 42.0258 36.1595 
109 2 46.3169 40.5566 34.0818 
110 2 47.5892 42.7603 34.0818 
111 2 47.5892 44.2295 36.1595 
112 2 46.3169 42.0258 36.1595 
113 2 48.8615 40.5566 34.0818 
114 2 50.1338 42.7603 34.0818 
115 2 50.1338 44.2295 36.1595 
116 2 48.8615 42.0258 36.1595 
117 2 51.4062 40.5566 34.0818 
118 2 52.6785 42.7603 34.0818 
119 2 52.6785 44.2295 36.1595 
120 2 51.4062 42.0258 36.1595 
121 2 53.9508 40.5566 34.0818 
122 2 55.2231 42.7603 34.0818 
123 2 55.2231 44.2295 36.1595 
124 2 53.9508 42.0258 36.1595 
125 2 56.4954 40.5566 34.0818 
126 2 57.7677 42.7603 34.0818 
127 2 57.7677 44.2295 36.1595 
128 2 56.4954 42.0258 36.1595 
129 2 59.04 40.5566 34.0818 
130 2 60.3123 42.7603 34.0818 
131 2 60.3123 44.2295 36.1595 
132 2 59.04 42.0258 36.1595 
133 2 61.5846 40.5566 34.0818 
134 2 62.8569 42.7603 34.0818 
135 2 62.8569 44.2295 36.1595 
136 2 61.5846 42.0258 36.1595 
137 2 20.8708 44.964 34.0818 
138 2 22.1431 47.1677 34.0818 
139 2 22.1431 48.6369 36.1595 
140 2 20.8708 46.4332 36.1595 
141 2 23.4154 44.964 34.0818 
142 2 24.6877 47.1677 34.0818 
143 2 24.6877 48.6369 36.1595 
144 2 23.4154 46.4332 36.1595 
145 2 25.96 44.964 34.0818 
146 2 27.2323 47.1677 34.0818 
147 2 27.2323 48.6369 36.1595 
148 2 25.96 46.4332 36.1595 
149 2 28.5046 44.964 34.0818 
150 2 29.7769 47.1677 34.0818 
151 2 29.7769 48.6369 36.1595 
152 2 28.5046 46.4332 36.1595 
153 2 31.0492 44.964 34.0818 
154 2 32.3215 47.1677 34.0818 
155 2 32.3215 48.6369 36.1595 
156 2 31.0492 46.4332 36.1595 
157 2 33.5938 44.964 34.0818 
158 2 34.8662 47.1677 34.0818 
159 2 34.8662 48.6369 36.1595 
160 2 33.5938 46.4332 36.1595 
161 2 36.1385 44.964 34.0818 
162 2 37.4108 47.1677 34.0818 
163 2 37.4108 48.6369 36.1595 
164 2 36.1385 46.4332 36.1595 
165 2 38.6831 44.964 34.0818 
166 2 39.9554 47.1677 34.0818 
167 2 39.9554 48.6369 36.1595 
168 2 38.6831 46.4332 36.1595 
169 2 41.2277 44.964 34.0818 
170 2 42.5 47.1677 34.0818 
171 2 42.5 48.6369 36.1595 
172 2 41.2277 46.4332 36.1595 
173 2 43.7723 44.964 34.0818 
174 2 45.0446 47.1677 34.0818 
175 2 45.0446 48.6369 36.1595 
176 2 43.7723 46.4332 36.1595 
177 2 46.3169 44.964 34.0818 
178 2 47.5892 47.1677 34.0818 
179 2 47.5892 48.6369 36.1595 
180 2 46.3169 46.4332 36.1595 
181 2 48.8615 44.964 34.0818 
182 2 50.1338 47.1677 34.0818 
183 2 50.1338 48.6369 36.1595 
184 2 48.8615 46.4332 36.1595 
185 2 51.4062 44.964 34.0818 
186 2 52.6785 47.1677 34.0818 
187 2 52.6785 48.6369 36.1595 
188 2 51.4062 46.4332 36.1595 
189 2 53.9508 44.964 34.0818 
190 2 55.2231 47.1677 34.0818 
191 2 55.2231 48.6369 36.1595 
192 2 53.9508 46.4332 36.1595 
193 2 56.4954 44.964 34.0818 
194 2 57.7677 47.1677 34.0818 
195 2 57.7677 48.6369 36.1595 
196 2 56.4954 46.4332 36.1595 
197 2 59.04 44.964 34.0818 
198 2 60.3123 47.1677 34.0818 
199 2 60.3123 48.6369 36.1595 
200 2 59.04 46.4332 36.1595 
201 2 61.5846 44.964 34.0818 
202 2 62.8569 47.1677 34.0818 
203 2 62.8569 48.6369 36.1595 
204 2 61.5846 46.4332 36.1595 
205 2 20.8708 49.3714 34.0818 
206 2 22.1431 51.5751 34.0818 
207 2 22.1431 53.0443 36.1595 
208 2 20.8708 50.8406 36.1595 
209 2 23.4154 49.3714 34.0818 
210 2 24.6877 51.5751 34.0818 
211 2 24.6877 53.0443 36.1595 
212 2 23.4154 50.8406 36.1595 
213 2 25.96 49.3714 34.0818 
214 2 27.2323 51.5751 34.0818 
215 2 27.2323 53.0443 36.1595 
216 2 25.96 50.8406 36.1595 
217 2 28.5046 49.3714 34.0818 
218 2 29.7769 51.5751 34.0818 
219 2 29.7769 53.0443 36.1595 
220 2 28.5046 50.8406 36.1595 
221 2 31.0492 49.3714 34.0818 
222 2 32.3215 51.5751 34.0818 
223 2 32.3215 53.0443 36.1595 
224 2 31.0492 50.8406 36.1595 
225 2 33.5938 49.3714 34.0818 
226 2 34.8662 51.5751 34.0818 
227 2 34.8662 53.0443 36.1595 
228 2 33.5938 50.8406 36.1595 
229 2 36.1385 49.3714 34.0818 
230 2 37.4108 51.5751 34.0818 
231 2 37.4108 53.0443 36.1595 
232 2 36.1385 50.8406 36.1595 
233 2 38.6831 49.3714 34.0818 
234 2 39.9554 51.5751 34.0818 
235 2 39.9554 53.0443 36.1595 
236 2 38.6831 50.8406 36.1595 
237 2 41.2277 49.3714 34.0818 
238 2 42.5 51.5751 34.0818 
239 2 42.5 53.0443 36.1595 
240 2 41.2277 50.8406 36.1595 
241 2 43.7723 49.3714 34.0818 
242 2 45.0446 51.5751 34.0818 
243 2 45.0446 53.0443 36.1595 
244 2 43.7723 50.8406 36.1595 
245 2 46.3169 49.3714 34.0818 
246 2 47.5892 51.5751 34.0818 
247 2 47.5892 53.0443 36.1595 
248 2 46.3169 50.8406 36.1595 
249 2 48.8615 49.3714 34.0818 
250 2 50.1338 51.5751 34.0818 
251 2 50.1338 53.0443 36.1595 
252 2 48.8615 50.8406 36.1595 
253 2 51.4062 49.3714 34.0818 
254 2 52.6785 51.5751 34.0818 
255 2 52.6785 53.0443 36.1595 
256 2 51.4062 50.8406 36.1595 
257 2 53.9508 49.3714 34.0818 
258 2 55.2231 51.5751 34.0818 
259 2 55.2231 53.0443 36.1595 
260 2 53.9508 50.8406 36.1595 
261 2 56.4954 49.3714 34.0818 
262 2 57.7677 51.5751 34.0818 
263 2 57.7677 53.0443 36.1595 
264 2 56.4954 50.8406 36.1595 
265 2 59.04 49.3714 34.0818 
266 2 60.3123 51.5751 34.0818 
267 2 60.3123 53.0443 36.1595 
268 2 59.04 50.8406 36.1595 
269 2 61.5846 49.3714 34.0818 
270 2 62.8569 51.5751 34.0818 
271 2 62.8569 53.0443 36.1595 
272 2 61.5846 50.8406 36.1595 
273 2 20.8708 53.7788 34.0818 
274 2 22.1431 55.9825 34.0818 
275 2 22.1431 57.4517 36.1595 
276 2 20.8708 55.248 36.1595 
277 2 23.4154 53.7788 34.0818 
278 2 24.6877 55.9825 34.0818 
279 2 24.6877 57.4517 36.1595 
280 2 23.4154 55.248 36.1595 
281 2 25.96 53.7788 34.0818 
282 2 27.2323 55.9825 34.0818 
283 2 27.2323 57.4517 36.1595 
284 2 25.96 55.248 36.1595 
285 2 28.5046 53.7788 34.0818 
286 2 29.7769 55.9825 34.0818 
287 2 29.7769 57.4517 36.1595 
288 2 28.5046 55.248 36.1595 
289 2 31.0492 53.7788 34.0818 
290 2 32.3215 55.9825 34.0818 
291 2 32.3215 57.4517 36.1595 
292 2 31.0492 55.248 36.1595 
293 2 33.5938 53.7788 34.0818 
294 2 34.8662 55.9825 34.0818 
295 2 34.8662 57.4517 36.1595 
296 2 33.5938 55.248 36.1595 
297 2 36.1385 53.7788 34.0818 
298 2 37.4108 55.9825 34.0818 
299 2 37.4108 57.4517 36.1595 
300 2 36.1385 55.248 36.1595 
301 2 38.6831 53.7788 34.0818 
302 2 39.9554 55.9825 34.0818 
303 2 39.9554 57.4517 36.1595 
304 2 38.6831 55.248 36.1595 
305 2 41.2277 53.7788 34.0818 
306 2 42.5 55.9825 34.0818 
307 2 42.5 57.4517 36.1595 
308 2 41.2277 55.248 36.1595 
309 2 43.7723 53.7788 34.0818 
310 2 45.0446 55.9825 34.0818 
311 2 45.0446 57.4517 36.1595 
312 2 43.7723 55.248 36.1595 
313 2 46.3169 53.7788 34.0818 
314 2 47.5892 55.9825 34.0818 
315 2 47.5892 57.4517 36.1595 
316 2 46.3169 55.248 36.1595 
317 2 48.8615 53.7788 34.0818 
318 2 50.1338 55.9825 34.0818 
319 2 50.1338 57.4517 36.1595 
320 2 48.8615 55.248 36.1595 
321 2 51.4062 53.7788 34.0818 
322 2 52.6785 55.9825 34.0818 
323 2 52.6785 57.4517 36.1595 
324 2 51.4062 55.248 36.1595 
325 2 53.9508 53.7788 34.0818 
326 2 55.2231 55.9825 34.0818 
327 2 55.2231 57.4517 36.1595 
328 2 53.9508 55.248 36.1595 
329 2 56.4954 53.7788 34.0818 
330 2 57.7677 55.9825 34.0818 
331 2 57.7677 57.4517 36.1595 
332 2 56.4954 55.248 36.1595 
333 2 59.04 53.7788 34.0818 
334 2 60.3123 55.9825 34.0818 
335 2 60.3123 57.4517 36.1595 
336 2 59.04 55.248 36.1595 
337 2 61.5846 53.7788 34.0818 
338 2 62.8569 55.9825 34.0818 
339 2 62.8569 57.4517 36.1595 
340 2 61.5846 55.248 36.1595 
341 2 20.8708 58.1862 34.0818 
342 2 22.1431 60.3899 34.0818 
343 2 22.1431 61.8591 36.1595 
344 2 20.8708 59.6554 36.1595 
345 2 23.4154 58.1862 34.0818 
346 2 24.6877 60.3899 34.0818 
347 2 24.6877 61.8591 36.1595 
348 2 23.4154 59.6554 36.1595 
349 2 25.96 58.1862 34.0818 
350 2 27.2323 60.3899 34.0818 
351 2 27.2323 61.8591 36.1595 
352 2 25.96 59.6554 36.1595 
353 2 28.5046 58.1862 34.0818 
354 2 29.7769 60.3899 34.0818 
355 2 29.7769 61.8591 36.1595 
356 2 28.5046 59.6554 36.1595 
357 2 31.0492 58.1862 34.0818 
358 2 32.3215 60.3899 34.0818 
359 2 32.3215 61.8591 36.1595 
360 2 31.0492 59.6554 36.1595 
361 2 33.5938 58.1862 34.0818 
362 2 34.8662 60.3899 34.0818 
363 2 34.8662 61.8591 36.1595 
364 2 33.5938 59.6554 36.1595 
365 2 36.1385 58.1862 34.0818 
366 2 37.4108 60.3899 34.0818 
367 2 37.4108 61.8591 36.1595 
368 2 36.1385 59.6554 36.1595 
369 2 38.6831 58.1862 34.0818 
370 2 39.9554 60.3899 34.0818 
371 2 39.9554 61.8591 36.1595 
372 2 38.6831 59.6554 36.1595 
373 2 41.2277 58.1862 34.0818 
374 2 42.5 60.3899 34.0818 
375 2 42.5 61.8591 36.1595 
376 2 41.2277 59.6554 36.1595 
377 2 43.7723 58.1862 34.0818 
378 2 45.0446 60.3899 34.0818 
379 2 45.0446 61.8591 36.1595 
380 2 43.7723 59.6554 36.1595 
381 2 46.3169 58.1862 34.0818 
382 2 47.5892 60.3899 34.0818 
383 2 47.5892 61.8591 36.1595 
384 2 46.3169 59.6554 36.1595 
385 2 48.8615 58.1862 34.0818 
386 2 50.1338 60.3899 34.0818 
387 2 50.1338 61.8591 36.1595 
388 2 48.8615 59.6554 36.1595 
389 2 51.4062 58.1862 34.0818 
390 2 52.6785 60.3899 34.0818 
391 2 52.6785 61.8591 36.1595 
392 2 51.4062 59.6554 36.1595 
393 2 53.9508 58.1862 34.0818 
394 2 55.2231 60.3899 34.0818 
395 2 55.2231 61.8591 36.1595 
396 2 53.9508 59.6554 36.1595 
397 2 56.4954 58.1862 34.0818 
398 2 57.7677 60.3899 34.0818 
399 2 57.7677 61.8591 36.1595 
400 2 56.4954 59.6554 36.1595 
401 2 59.04 58.1862 34.0818 
402 2 60.3123 60.3899 34.0818 
403 2 60.3123 61.8591 36.1595 
404 2 59.04 59.6554 36.1595 
405 2 61.5846 58.1862 34.0818 
406 2 62.8569 60.3899 34.0818 
407 2 62.8569 61.8591 36.1595 
408 2 61.5846 59.6554 36.1595 
409 2 20.8708 62.5936 34.0818 
410 2 22.1431 64.7973 34.0818 
411 2 22.1431 66.2665 36.1595 
412 2 20.8708 64.0628 36.1595 
413 2 23.4154 62.5936 34.0818 
414 2 24.6877 64.7973 34.0818 
415 2 24.6877 66.2665 36.1595 
416 2 23.4154 64.0628 36.1595 
417 2 25.96 62.5936 34.0818 
418 2 27.2323 64.7973 34.0818 
419 2 27.2323 66.2665 36.1595 
420 2 25.96 64.0628 36.1595 
421 2 28.5046 62.5936 34.0818 
422 2 29.7769 64.7973 34.0818 
423 2 29.7769 66.2665 36.1595 
424 2 28.5046 64.0628 36.1595 
425 2 31.0492 62.5936 34.0818 
426 2 32.3215 64.7973 34.0818 
427 2 32.3215 66.2665 36.1595 
428 2 31.0492 64.0628 36.1595 
429 2 33.5938 62.5936 34.0818 
430 2 34.8662 64.7973 34.0818 
431 2 34.8662 66.2665 36.1595 
432 2 33.5938 64.0628 36.1595 
433 2 36.1385 62.5936 34.0818 
434 2 37.4108 64.7973 34.0818 
435 2 37.4108 66.2665 36.1595 
436 2 36.1385 64.0628 36.1595 
437 2 38.6831 62.5936 34.0818 
438 2 39.9554 64.7973 34.0818 
439 2 39.9554 66.2665 36.1595 
440 2 38.6831 64.0628 36.1595 
441 2 41.2277 62.5936 34.0818 
442 2 42.5 64.7973 34.0818 
443 2 42.5 66.2665 36.1595 
444 2 41.2277 64.0628 36.1595 
445 2 43.7723 62.5936 34.0818 
446 2 45.0446 64.7973 34.0818 
447 2 45.0446 66.2665 36.1595 
448 2 43.7723 64.0628 36.1595 
449 2 46.3169 62.5936 34.0818 
450 2 47.5892 64.7973 34.0818 
451 2 47.5892 66.2665 36.1595 
452 2 46.3169 64.0628 36.1595 
453 2 48.8615 62.5936 34.0818 
454 2 50.1338 64.7973 34.0818 
455 2 50.1338 66.2665 36.1595 
456 2 48.8615 64.0628 36.1595 
457 2 51.4062 62.5936 34.0818 
458 2 52.6785 64.7973 34.0818 
459 2 52.6785 66.2665 36.1595 
460 2 51.4062 64.0628 36.1595 
461 2 53.9508 62.5936 34.0818 
462 2 55.2231 64.7973 34.0818 
463 2 55.2231 66.2665 36.1595 
464 2 53.9508 64.0628 36.1595 
465 2 56.4954 62.5936 34.0818 
466 2 57.7677 64.7973 34.0818 
467 2 57.7677 66.2665 36.1595 
468 2 56.4954 64.0628 36.1595 
469 2 59.04 62.5936 34.0818 
470 2 60.3123 64.7973 34.0818 
471 2 60.3123 66.2665 36.1595 
472 2 59.04 64.0628 36.1595 
473 2 61.5846 62.5936 34.0818 
474 2 62.8569 64.7973 34.0818 
475 2 62.8569 66.2665 36.1595 
476 2 61.5846 64.0628 36.1595 
477 2 20.8708 67.0011 34.0818 
478 2 22.1431 69.2048 34.0818 
479 2 22.1431 70.6739 36.1595 
480 2 20.8708 68.4702 36.1595 
481 2 23.4154 67.0011 34.0818 
482 2 24.6877 69.2048 34.0818 
483 2 24.6877 70.6739 36.1595 
484 2 23.4154 68.4702 36.1595 
485 2 25.96 67.0011 34.0818 
486 2 27.2323 69.2048 34.0818 
487 2 27.2323 70.6739 36.1595 
488 2 25.96 68.4702 36.1595 
489 2 28.5046 67.0011 34.0818 
490 2 29.7769 69.2048 34.0818 
491 2 29.7769 70.6739 36.1595 
492 2 28.5046 68.4702 36.1595 
493 2 31.0492 67.0011 34.0818 
494 2 32.3215 69.2048 34.0818 
495 2 32.3215 70.6739 36.1595 
496 2 31.0492 68.4702 36.1595 
497 2 33.5938 67.0011 34.0818 
498 2 34.8662 69.2048 34.0818 
499 2 34.8662 70.6739 36.1595 
500 2 33.5938 68.4702 36.1595 
501 2 36.1385 67.0011 34.0818 
502 2 37.4108 69.2048 34.0818 
503 2 37.4108 70.6739 36.1595 
504 2 36.1385 68.4702 36.1595 
505 2 38.6831 67.0011 34.0818 
506 2 39.9554 69.2048 34.0818 
507 2 39.9554 70.6739 36.1595 
508 2 38.6831 68.4702 36.1595 
509 2 41.2277 67.0011 34.0818 
510 2 42.5 69.2048 34.0818 
511 2 42.5 70.6739 36.1595 
512 2 41.2277 68.4702 36.1595 
513 2 43.7723 67.0011 34.0818 
514 2 45.0446 69.2048 34.0818 
515 2 45.0446 70.6739 36.1595 
516 2 43.7723 68.4702 36.1595 
517 2 46.3169 67.0011 34.0818 
518 2 47.5892 69.2048 34.0818 
519 2 47.5892 70.6739 36.1595 
520 2 46.3169 68.4702 36.1595 
521 2 48.8615 67.0011 34.0818 
522 2 50.1338 69.2048 34.0818 
523 2 50.1338 70.6739 36.1595 
524 2 48.8615 68.4702 36.1595 
525 2 51.4062 67.0011 34.0818 
526 2 52.6785 69.2048 34.0818 
527 2 52.6785 70.6739 36.1595 
528 2 51.4062 68.4702 36.1595 
529 2 53.9508 67.0011 34.0818 
530 2 55.2231 69.2048 34.0818 
531 2 55.2231 70.6739 36.1595 
532 2 53.9508 68.4702 36.1595 
533 2 56.4954 67.0011 34.0818 
534 2 57.7677 69.2048 34.0818 
535 2 57.7677 70.6739 36.1595 
536 2 56.4954 68.4702 36.1595 
537 2 59.04 67.0011 34.0818 
538 2 60.3123 69.2048 34.0818 
539 2 60.3123 70.6739 36.1595 
540 2 59.04 68.4702 36.1595 
541 2 61.5846 67.0011 34.0818 
542 2 62.8569 69.2048 34.0818 
543 2 62.8569 70.6739 36.1595 
544 2 61.5846 68.4702 36.1595 
545 2 20.8708 71.4085 34.0818 
546 2 22.1431 73.6122 34.0818 
547 2 22.1431 75.0813 36.1595 
548 2 20.8708 72.8776 36.1595 
549 2 23.4154 71.4085 34.0818 
550 2 24.6877 73.6122 34.0818 
551 2 24.6877 75.0813 36.1595 
552 2 23.4154 72.8776 36.1595 
553 2 25.96 71.4085 34.0818 
554 2 27.2323 73.6122 34.0818 
555 2 27.2323 75.0813 36.1595 
556 2 25.96 72.8776 36.1595 
557 2 28.5046 71.4085 34.0818 
558 2 29.7769 73.6122 34.0818 
559 2 29.7769 75.0813 36.1595 
560 2 28.5046 72.8776 36.1595 
561 2 31.0492 71.4085 34.0818 
562 2 32.3215 73.6122 34.0818 
563 2 32.3215 75.0813 36.1595 
564 2 31.0492 72.8776 36.1595 
565 2 33.5938 71.4085 34.0818 
566 2 34.8662 73.6122 34.0818 
567 2 34.8662 75.0813 36.1595 
568 2 33.5938 72.8776 36.1595 
569 2 36.1385 71.4085 34.0818 
570 2 37.4108 73.6122 34.0818 
571 2 37.4108 75.0813 36.1595 
572 2 36.1385 72.8776 36.1595 
573 2 38.6831 71.4085 34.0818 
574 2 39.9554 73.6122 34.0818 
575 2 39.9554 75.0813 36.1595 
576 2 38.6831 72.8776 36.1595 
577 2 41.2277 71.4085 34.0818 
578 2 42.5 73.6122 34.0818 
579 2 42.5 75.0813 36.1595 
580 2 41.2277 72.8776 36.1595 
581 2 43.7723 71.4085 34.0818 
582 2 45.0446 73.6122 34.0818 
583 2 45.0446 75.0813 36.1595 
584 2 43.7723 72.8776 36.1595 
585 2 46.3169 71.4085 34.0818 
586 2 47.5892 73.6122 34.0818 
587 2 47.5892 75.0813 36.1595 
588 2 46.3169 72.8776 36.1595 
589 2 48.8615 71.4085 34.0818 
590 2 50.1338 73.6122 34.0818 
591 2 50.1338 75.0813 36.1595 
592 2 48.8615 72.8776 36.1595 
593 2 51.4062 71.4085 34.0818 
594 2 52.6785 73.6122 34.0818 
595 2 52.6785 75.0813 36.1595 
596 2 51.4062 72.8776 36.1595 
597 2 53.9508 71.4085 34.0818 
598 2 55.2231 73.6122 34.0818 
599 2 55.2231 75.0813 36.1595 
600 2 53.9508 72.8776 36.1595 
601 2 56.4954 71.4085 34.0818 
602 2 57.7677 73.6122 34.0818 
603 2 57.7677 75.0813 36.1595 
604 2 56.4954 72.8776 36.1595 
605 2 59.04 71.4085 34.0818 
606 2 60.3123 73.6122 34.0818 
607 2 60.3123 75.0813 36.1595 
608 2 59.04 72.8776 36.1595 
609 2 61.5846 71.4085 34.0818 
610 2 62.8569 73.6122 34.0818 
611 2 62.8569 75.0813 36.1595 
612 2 61.5846 72.8776 36.1595 
613 2 20.8708 75.8159 34.0818 
614 2 22.1431 78.0196 34.0818 
615 2 22.1431 79.4887 36.1595 
616 2 20.8708 77.285 36.1595 
617 2 23.4154 75.8159 34.0818 
618 2 24.6877 78.0196 34.0818 
619 2 24.6877 79.4887 36.1595 
620 2 23.4154 77.285 36.1595 
621 2 25.96 75.8159 34.0818 
622 2 27.2323 78.0196 34.0818 
623 2 27.2323 79.4887 36.1595 
624 2 25.96 77.285 36.1595 
625 2 28.5046 75.8159 34.0818 
626 2 29.7769 78.0196 34.0818 
627 2 29.7769 79.4887 36.1595 
628 2 28.5046 77.285 36.1595 
629 2 31.0492 75.8159 34.0818 
630 2 32.3215 78.0196 34.0818 
631 2 32.3215 79.4887 36.1595 
632 2 31.0492 77.285 36.1595 
633 2 33.5938 75.8159 34.0818 
634 2 34.8662 78.0196 34.0818 
635 2 34.8662 79.4887 36.1595 
636 2 33.5938 77.285 36.1595 
637 2 36.1385 75.8159 34.0818 
638 2 37.4108 78.0196 34.0818 
639 2 37.4108 79.4887 36.1595 
640 2 36.1385 77.285 36.1595 
641 2 38.6831 75.8159 34.0818 
642 2 39.9554 78.0196 34.0818 
643 2 39.9554 79.4887 36.1595 
644 2 38.6831 77.285 36.1595 
645 2 41.2277 75.8159 34.0818 
646 2 42.5 78.0196 34.0818 
647 2 42.5 79.4887 36.1595 
648 2 41.2277 77.285 36.1595 
649 2 43.7723 75.8159 34.0818 
650 2 45.0446 78.0196 34.0818 
651 2 45.0446 79.4887 36.1595 
652 2 43.7723 77.285 36.1595 
653 2 46.3169 75.8159 34.0818 
654 2 47.5892 78.0196 34.0818 
655 2 47.5892 79.4887 36.1595 
656 2 46.3169 77.285 36.1595 
657 2 48.8615 75.8159 34.0818 
658 2 50.1338 78.0196 34.0818 
659 2 50.1338 79.4887 36.1595 
660 2 48.8615 77.285 36.1595 
661 2 51.4062 75.8159 34.0818 
662 2 52.6785 78.0196 34.0818 
663 2 52.6785 79.4887 36.1595 
664 2 51.4062 77.285 36.1595 
665 2 53.9508 75.8159 34.0818 
666 2 55.2231 78.0196 34.0818 
667 2 55.2231 79.4887 36.1595 
668 2 53.9508 77.285 36.1595 
669 2 56.4954 75.8159 34.0818 
670 2 57.7677 78.0196 34.0818 
671 2 57.7677 79.4887 36.1595 
672 2 56.4954 77.285 36.1595 
673 2 59.04 75.8159 34.0818 
674 2 60.3123 78.0196 34.0818 
675 2 60.3123 79.4887 36.1595 
676 2 59.04 77.285 36.1595 
677 2 61.5846 75.8159 34.0818 
678 2 62.8569 78.0196 34.0818 
679 2 62.8569 79.4887 36.1595 
680 2 61.5846 77.285 36.1595 
681 2 20.8708 80.2233 34.0818 
682 2 22.1431 82.427 34.0818 
683 2 22.1431 83.8961 36.1595 
684 2 20.8708 81.6924 36.1595 
685 2 23.4154 80.2233 34.0818 
686 2 24.6877 82.427 34.0818 
687 2 24.6877 83.8961 36.1595 
688 2 23.4154 81.6924 36.1595 
689 2 25.96 80.2233 34.0818 
690 2 27.2323 82.427 34.0818 
691 2 27.2323 83.8961 36.1595 
692 2 25.96 81.6924 36.1595 
693 2 28.5046 80.2233 34.0818 
694 2 29.7769 82.427 34.0818 
695 2 29.7769 83.8961 36.1595 
696 2 28.5046 81.6924 36.1595 
697 2 31.0492 80.2233 34.0818 
698 2 32.3215 82.427 34.0818 
699 2 32.3215 83.8961 36.1595 
700 2 31.0492 81.6924 36.1595 
701 2 33.5938 80.2233 34.0818 
702 2 34.8662 82.427 34.0818 
703 2 34.8662 83.8961 36.1595 
704 2 33.5938 81.6924 36.1595 
705 2 36.1385 80.2233 34.0818 
706 2 37.4108 82.427 34.0818 
707 2 37.4108 83.8961 36.1595 
708 2 36.1385 81.6924 36.1595 
709 2 38.6831 80.2233 34.0818 
710 2 39.9554 82.427 34.0818 
711 2 39.9554 83.8961 36.1595 
712 2 38.6831 81.6924 36.1595 
713 2 41.2277 80.2233 34.0818 
714 2 42.5 82.427 34.0818 
715 2 42.5 83.8961 36.1595 
716 2 41.2277 81.6924 36.1595 
717 2 43.7723 80.2233 34.0818 
718 2 45.0446 82.427 34.0818 
719 2 45.0446 83.8961 36.1595 
720 2 43.7723 81.6924 36.1595 
721 2 46.3169 80.2233 34.0818 
722 2 47.5892 82.427 34.0818 
723 2 47.5892 83.8961 36.1595 
724 2 46.3169 81.6924 36.1595 
725 2 48.8615 80.2233 34.0818 
726 2 50.1338 82.427 34.0818 
727 2 50.1338 83.8961 36.1595 
728 2 48.8615 81.6924 36.1595 
729 2 51.4062 80.2233 34.0818 
730 2 52.6785 82.427 34.0818 
731 2 52.6785 83.8961 36.1595 
732 2 51.4062 81.6924 36.1595 
733 2 53.9508 80.2233 34.0818 
734 2 55.2231 82.427 34.0818 
735 2 55.2231 83.8961 36.1595 
736 2 53.9508 81.6924 36.1595 
737 2 56.4954 80.2233 34.0818 
738 2 57.7677 82.427 34.0818 
739 2 57.7677 83.8961 36.1595 
740 2 56.4954 81.6924 36.1595 
741 2 59.04 80.2233 34.0818 
742 2 60.3123 82.427 34.0818 
743 2 60.3123 83.8961 36.1595 
744 2 59.04 81.6924 36.1595 
745 2 61.5846 80.2233 34.0818 
746 2 62.8569 82.427 34.0818 
747 2 62.8569 83.8961 36.1595 
748 2 61.5846 81.6924 36.1595 
749 2 20.8708 84.6307 34.0818 
750 2 22.1431 86.8344 34.0818 
751 2 22.1431 88.3035 36.1595 
752 2 20.8708 86.0998 36.1595 
753 2 23.4154 84.6307 34.0818 
754 2 24.6877 86.8344 34.0818 
755 2 24.6877 88.3035 36.1595 
756 2 23.4154 86.0998 36.1595 
757 2 25.96 84.6307 34.0818 
758 2 27.2323 86.8344 34.0818 
759 2 27.2323 88.3035 36.1595 
760 2 25.96 86.0998 36.1595 
761 2 28.5046 84.6307 34.0818 
762 2 29.7769 86.8344 34.0818 
763 2 29.7769 88.3035 36.1595 
764 2 28.5046 86.0998 36.1595 
765 2 31.0492 84.6307 34.0818 
766 2 32.3215 86.8344 34.0818 
767 2 32.3215 88.3035 36.1595 
768 2 31.0492 86.0998 36.1595 
769 2 33.5938 84.6307 34.0818 
770 2 34.8662 86.8344 34.0818 
771 2 34.8662 88.3035 36.1595 
772 2 33.5938 86.0998 36.1595 
773 2 36.1385 84.6307 34.0818 
774 2 37.4108 86.8344 34.0818 
775 2 37.4108 88.3035 36.1595 
776 2 36.1385 86.0998 36.1595 
777 2 38.6831 84.6307 34.0818 
778 2 39.9554 86.8344 34.0818 
779 2 39.9554 88.3035 36.1595 
780 2 38.6831 86.0998 36.1595 
781 2 41.2277 84.6307 34.0818 
782 2 42.5 86.8344 34.0818 
783 2 42.5 88.3035 36.1595 
784 2 41.2277 86.0998 36.1595 
785 2 43.7723 84.6307 34.0818 
786 2 45.0446 86.8344 34.0818 
787 2 45.0446 88.3035 36.1595 
788 2 43.7723 86.0998 36.1595 
789 2 46.3169 84.6307 34.0818 
790 2 47.5892 86.8344 34.0818 
791 2 47.5892 88.3035 36.1595 
792 2 46.3169 86.0998 36.1595 
793 2 48.8615 84.6307 34.0818 
794 2 50.1338 86.8344 34.0818 
795 2 50.1338 88.3035 36.1595 
796 2 48.8615 86.0998 36.1595 
797 2 51.4062 84.6307 34.0818 
798 2 52.6785 86.8344 34.0818 
799 2 52.6785 88.3035 36.1595 
800 2 51.4062 86.0998 36.1595 
801 2 53.9508 84.6307 34.0818 
802 2 55.2231 86.8344 34.0818 
803 2 55.2231 88.3035 36.1595 
804 2 53.9508 86.0998 36.1595 
805 2 56.4954 84.6307 34.0818 
806 2 57.7677 86.8344 34.0818 
807 2 57.7677 88.3035 36.1595 
808 2 56.4954 86.0998 36.1595 
809 2 59.04 84.6307 34.0818 
810 2 60.3123 86.8344 34.0818 
811 2 60.3123 88.3035 36.1595 
812 2 59.04 86.0998 36.1595 
813 2 61.5846 84.6307 34.0818 
814 2 62.8569 86.8344 34.0818 
815 2 62.8569 88.3035 36.1595 
816 2 61.5846 86.0998 36.1595 
817 2 20.8708 89.0381 34.0818 
818 2 22.1431 91.2418 34.0818 
819 2 22.1431 92.7109 36.1595 
820 2 20.8708 90.5072 36.1595 
821 2 23.4154 89.0381 34.0818 
822 2 24.6877 91.2418 34.0818 
823 2 24.6877 92.7109 36.1595 
824 2 23.4154 90.5072 36.1595 
825 2 25.96 89.0381 34.0818 
826 2 27.2323 91.2418 34.0818 
827 2 27.2323 92.7109 36.1595 
828 2 25.96 90.5072 36.1595 
829 2 28.5046 89.0381 34.0818 
830 2 29.7769 91.2418 34.0818 
831 2 29.7769 92.7109 36.1595 
832 2 28.5046 90.5072 36.1595 
833 2 31.0492 89.0381 34.0818 
834 2 32.3215 91.2418 34.0818 
835 2 32.3215 92.7109 36.1595 
836 2 31.0492 90.5072 36.1595 
837 2 33.5938 89.0381 34.0818 
838 2 34.8662 91.2418 34.0818 
839 2 34.8662 92.7109 36.1595 
840 2 33.5938 90.5072 36.1595 
841 2 36.1385 89.0381 34.0818 
842 2 37.4108 91.2418 34.0818 
843 2 37.4108 92.7109 36.1595 
844 2 36.1385 90.5072 36.1595 
845 2 38.6831 89.0381 34.0818 
846 2 39.9554 91.2418 34.0818 
847 2 39.9554 92.7109 36.1595 
848 2 38.6831 90.5072 36.1595 
849 2 41.2277 89.0381 34.0818 
850 2 42.5 91.2418 34.0818 
851 2 42.5 92.7109 36.1595 
852 2 41.2277 90.5072 36.1595 
853 2 43.7723 89.0381 34.0818 
854 2 45.0446 91.2418 34.0818 
855 2 45.0446 92.7109 36.1595 
856 2 43.7723 90.5072 36.1595 
857 2 46.3169 89.0381 34.0818 
858 2 47.5892 91.2418 34.0818 
859 2 47.5892 92.7109 36.1595 
860 2 46.3169 90.5072 36.1595 
861 2 48.8615 89.0381 34.0818 
862 2 50.1338 91.2418 34.0818 
863 2 50.1338 92.7109 36.1595 
864 2 48.8615 90.5072 36.1595 
865 2 51.4062 89.0381 34.0818 
866 2 52.6785 91.2418 34.0818 
867 2 52.6785 92.7109 36.1595 
868 2 51.4062 90.5072 36.1595 
869 2 53.9508 89.0381 34.0818 
870 2 55.2231 91.2418 34.0818 
871 2 55.2231 92.7109 36.1595 
872 2 53.9508 90.5072 36.1595 
873 2 56.4954 89.0381 34.0818 
874 2 57.7677 91.2418 34.0818 
875 2 57.7677 92.7109 36.1595 
876 2 56.4954 90.5072 36.1595 
877 2 59.04 89.0381 34.0818 
878 2 60.3123 91.2418 34.0818 
879 2 60.3123 92.7109 36.1595 
880 2 59.04 90.5072 36.1595 
881 2 61.5846 89.0381 34.0818 
882 2 62.8569 91.2418 34.0818 
883 2 62.8569 92.7109 36.1595 
884 2 61.5846 90.5072 36.1595 
885 2 20.8708 93.4455 34.0818 
886 2 22.1431 95.6492 34.0818 
887 2 22.1431 97.1183 36.1595 
888 2 20.8708 94.9146 36.1595 
889 2 23.4154 93.4455 34.0818 
890 2 24.6877 95.6492 34.0818 
891 2 24.6877 97.1183 36.1595 
892 2 23.4154 94.9146 36.1595 
893 2 25.96 93.4455 34.0818 
894 2 27.2323 95.6492 34.0818 
895 2 27.2323 97.1183 36.1595 
896 2 25.96 94.9146 36.1595 
897 2 28.5046 93.4455 34.0818 
898 2 29.7769 95.6492 34.0818 
899 2 29.7769 97.1183 36.1595 
900 2 28.5046 94.9146 36.1595 
901 2 31.0492 93.4455 34.0818 
902 2 32.3215 95.6492 34.0818 
903 2 32.3215 97.1183 36.1595 
904 2 31.0492 94.9146 36.1595 
905 2 33.5938 93.4455 34.0818 
906 2 34.8662 95.6492 34.0818 
907 2 34.8662 97.1183 36.1595 
908 2 33.5938 94.9146 36.1595 
909 2 36.1385 93.4455 34.0818 
910 2 37.4108 95.6492 34.0818 
911 2 37.4108 97.1183 36.1595 
912 2 36.1385 94.9146 36.1595 
913 2 38.6831 93.4455 34.0818 
914 2 39.9554 95.6492 34.0818 
915 2 39.9554 97.1183 36.1595 
916 2 38.6831 94.9146 36.1595 
917 2 41.2277 93.4455 34.0818 
918 2 42.5 95.6492 34.0818 
919 2 42.5 97.1183 36.1595 
920 2 41.2277 94.9146 36.1595 
921 2 43.7723 93.4455 34.0818 
922 2 45.0446 95.6492 34.0818 
923 2 45.0446 97.1183 36.1595 
924 2 43.7723 94.9146 36.1595 
925 2 46.3169 93.4455 34.0818 
926 2 47.5892 95.6492 34.0818 
927 2 47.5892 97.1183 36.1595 
928 2 46.3169 94.9146 36.1595 
929 2 48.8615 93.4455 34.0818 
930 2 50.1338 95.6492 34.0818 
931 2 50.1338 97.1183 36.1595 
932 2 48.8615 94.9146 36.1595 
933 2 51.4062 93.4455 34.0818 
934 2 52.6785 95.6492 34.0818 
935 2 52.6785 97.1183 36.1595 
936 2 51.4062 94.9146 36.1595 
937 2 53.9508 93.4455 34.0818 
938 2 55.2231 95.6492 34.0818 
939 2 55.2231 97.1183 36.1595 
940 2 53.9508 94.9146 36.1595 
941 2 56.4954 93.4455 34.0818 
942 2 57.7677 95.6492 34.0818 
943 2 57.7677 97.1183 36.1595 
944 2 56.4954 94.9146 36.1595 
945 2 59.04 93.4455 34.0818 
946 2 60.3123 95.6492 34.0818 
947 2 60.3123 97.1183 36.1595 
948 2 59.04 94.9146 36.1595 
949 2 61.5846 93.4455 34.0818 
950 2 62.8569 95.6492 34.0818 
951 2 62.8569 97.1183 36.1595 
952 2 61.5846 94.9146 36.1595 
953 2 20.8708 97.8529 34.0818 
954 2 22.1431 100.057 34.0818 
955 2 22.1431 101.526 36.1595 
956 2 20.8708 99.322 36.1595 
957 2 23.4154 97.8529 34.0818 
958 2 24.6877 100.057 34.0818 
959 2 24.6877 101.526 36.1595 
960 2 23.4154 99.322 36.1595 
961 2 25.96 97.8529 34.0818 
962 2 27.2323 100.057 34.0818 
963 2 27.2323 101.526 36.1595 
964 2 25.96 99.322 36.1595 
965 2 28.5046 97.8529 34.0818 
966 2 29.7769 100.057 34.0818 
967 2 29.7769 101.526 36.1595 
968 2 28.5046 99.322 36.1595 
969 2 31.0492 97.8529 34.0818 
970 2 32.3215 100.057 34.0818 
971 2 32.3215 101.526 36.1595 
972 2 31.0492 99.322 36.1595 