ITEM: TIMESTEP
27
ITEM: NUMBER OF ATOMS
19652
ITEM: BOX BOUNDS pp pp pp
4.7552327900097300e+00 8.0244767209990158e+01
8.2363047941143464e+00 1.3898801384924042e+02
7.7652626291167133e+00 1.3103915612859646e+02
ITEM: ATOMS id type xu yu zu 
1 1 4.75523 8.2363 7.76526 
2 1 6.97551 12.0819 7.76526 
3 1 6.97551 14.6457 11.391 
4 1 4.75523 10.8001 11.391 
5 1 9.19579 8.2363 7.76526 
6 1 11.4161 12.0819 7.76526 
7 1 11.4161 14.6457 11.391 
8 1 9.19579 10.8001 11.391 
9 1 13.6364 8.2363 7.76526 
10 1 15.8566 12.0819 7.76526 
11 1 15.8566 14.6457 11.391 
12 1 13.6364 10.8001 11.391 
13 1 18.0769 8.2363 7.76526 
14 1 20.2972 12.0819 7.76526 
15 1 20.2972 14.6457 11.391 
16 1 18.0769 10.8001 11.391 
17 1 22.5175 8.2363 7.76526 
18 1 24.7378 12.0819 7.76526 
19 1 24.7378 14.6457 11.391 
20 1 22.5175 10.8001 11.391 
21 1 26.958 8.2363 7.76526 
22 1 29.1783 12.0819 7.76526 
23 1 29.1783 14.6457 11.391 
24 1 26.958 10.8001 11.391 
25 1 31.3986 8.2363 7.76526 
26 1 33.6189 12.0819 7.76526 
27 1 33.6189 14.6457 11.391 
28 1 31.3986 10.8001 11.391 
29 1 35.8392 8.2363 7.76526 
30 1 38.0594 12.0819 7.76526 
31 1 38.0594 14.6457 11.391 
32 1 35.8392 10.8001 11.391 
33 1 40.2797 8.2363 7.76526 
34 1 42.5 12.0819 7.76526 
35 1 42.5 14.6457 11.391 
36 1 40.2797 10.8001 11.391 
37 1 44.7203 8.2363 7.76526 
38 1 46.9406 12.0819 7.76526 
39 1 46.9406 14.6457 11.391 
40 1 44.7203 10.8001 11.391 
41 1 49.1608 8.2363 7.76526 
42 1 51.3811 12.0819 7.76526 
43 1 51.3811 14.6457 11.391 
44 1 49.1608 10.8001 11.391 
45 1 53.6014 8.2363 7.76526 
46 1 55.8217 12.0819 7.76526 
47 1 55.8217 14.6457 11.391 
48 1 53.6014 10.8001 11.391 
49 1 58.042 8.2363 7.76526 
50 1 60.2622 12.0819 7.76526 
51 1 60.2622 14.6457 11.391 
52 1 58.042 10.8001 11.391 
53 1 62.4825 8.2363 7.76526 
54 1 64.7028 12.0819 7.76526 
55 1 64.7028 14.6457 11.391 
56 1 62.4825 10.8001 11.391 
57 1 66.9231 8.2363 7.76526 
58 1 69.1434 12.0819 7.76526 
59 1 69.1434 14.6457 11.391 
60 1 66.9231 10.8001 11.391 
61 1 71.3636 8.2363 7.76526 
62 1 73.5839 12.0819 7.76526 
63 1 73.5839 14.6457 11.391 
64 1 71.3636 10.8001 11.391 
65 1 75.8042 8.2363 7.76526 
66 1 78.0245 12.0819 7.76526 
67 1 78.0245 14.6457 11.391 
68 1 75.8042 10.8001 11.391 
69 1 4.75523 15.9276 7.76526 
70 1 6.97551 19.7732 7.76526 
71 1 6.97551 22.337 11.391 
72 1 4.75523 18.4913 11.391 
73 1 9.19579 15.9276 7.76526 
74 1 11.4161 19.7732 7.76526 
75 1 11.4161 22.337 11.391 
76 1 9.19579 18.4913 11.391 
77 1 13.6364 15.9276 7.76526 
78 1 15.8566 19.7732 7.76526 
79 1 15.8566 22.337 11.391 
80 1 13.6364 18.4913 11.391 
81 1 18.0769 15.9276 7.76526 
82 1 20.2972 19.7732 7.76526 
83 1 20.2972 22.337 11.391 
84 1 18.0769 18.4913 11.391 
85 1 22.5175 15.9276 7.76526 
86 1 24.7378 19.7732 7.76526 
87 1 24.7378 22.337 11.391 
88 1 22.5175 18.4913 11.391 
89 1 26.958 15.9276 7.76526 
90 1 29.1783 19.7732 7.76526 
91 1 29.1783 22.337 11.391 
92 1 26.958 18.4913 11.391 
93 1 31.3986 15.9276 7.76526 
94 1 33.6189 19.7732 7.76526 
95 1 33.6189 22.337 11.391 
96 1 31.3986 18.4913 11.391 
97 1 35.8392 15.9276 7.76526 
98 1 38.0594 19.7732 7.76526 
99 1 38.0594 22.337 11.391 
100 1 35.8392 18.4913 11.391 
101 1 40.2797 15.9276 7.76526 
102 1 42.5 19.7732 7.76526 
103 1 42.5 22.337 11.391 
104 1 40.2797 18.4913 11.391 
105 1 44.7203 15.9276 7.76526 
106 1 46.9406 19.7732 7.76526 
107 1 46.9406 22.337 11.391 
108 1 44.7203 18.4913 11.391 
109 1 49.1608 15.9276 7.76526 
110 1 51.3811 19.7732 7.76526 
111 1 51.3811 22.337 11.391 
112 1 49.1608 18.4913 11.391 
113 1 53.6014 15.9276 7.76526 
114 1 55.8217 19.7732 7.76526 
115 1 55.8217 22.337 11.391 
116 1 53.6014 18.4913 11.391 
117 1 58.042 15.9276 7.76526 
118 1 60.2622 19.7732 7.76526 
119 1 60.2622 22.337 11.391 
120 1 58.042 18.4913 11.391 
121 1 62.4825 15.9276 7.76526 
122 1 64.7028 19.7732 7.76526 
123 1 64.7028 22.337 11.391 
124 1 62.4825 18.4913 11.391 
125 1 66.9231 15.9276 7.76526 
126 1 69.1434 19.7732 7.76526 
127 1 69.1434 22.337 11.391 
128 1 66.9231 18.4913 11.391 
129 1 71.3636 15.9276 7.76526 
130 1 73.5839 19.7732 7.76526 
131 1 73.5839 22.337 11.391 
132 1 71.3636 18.4913 11.391 
133 1 75.8042 15.9276 7.76526 
134 1 78.0245 19.7732 7.76526 
135 1 78.0245 22.337 11.391 
136 1 75.8042 18.4913 11.391 
137 1 4.75523 23.6189 7.76526 
138 1 6.97551 27.4645 7.76526 
139 1 6.97551 30.0283 11.391 
140 1 4.75523 26.1826 11.391 
141 1 9.19579 23.6189 7.76526 
142 1 11.4161 27.4645 7.76526 
143 1 11.4161 30.0283 11.391 
144 1 9.19579 26.1826 11.391 
145 1 13.6364 23.6189 7.76526 
146 1 15.8566 27.4645 7.76526 
147 1 15.8566 30.0283 11.391 
148 1 13.6364 26.1826 11.391 
149 1 18.0769 23.6189 7.76526 
150 1 20.2972 27.4645 7.76526 
151 1 20.2972 30.0283 11.391 
152 1 18.0769 26.1826 11.391 
153 1 22.5175 23.6189 7.76526 
154 1 24.7378 27.4645 7.76526 
155 1 24.7378 30.0283 11.391 
156 1 22.5175 26.1826 11.391 
157 1 26.958 23.6189 7.76526 
158 1 29.1783 27.4645 7.76526 
159 1 29.1783 30.0283 11.391 
160 1 26.958 26.1826 11.391 
161 1 31.3986 23.6189 7.76526 
162 1 33.6189 27.4645 7.76526 
163 1 33.6189 30.0283 11.391 
164 1 31.3986 26.1826 11.391 
165 1 35.8392 23.6189 7.76526 
166 1 38.0594 27.4645 7.76526 
167 1 38.0594 30.0283 11.391 
168 1 35.8392 26.1826 11.391 
169 1 40.2797 23.6189 7.76526 
170 1 42.5 27.4645 7.76526 
171 1 42.5 30.0283 11.391 
172 1 40.2797 26.1826 11.391 
173 1 44.7203 23.6189 7.76526 
174 1 46.9406 27.4645 7.76526 
175 1 46.9406 30.0283 11.391 
176 1 44.7203 26.1826 11.391 
177 1 49.1608 23.6189 7.76526 
178 1 51.3811 27.4645 7.76526 
179 1 51.3811 30.0283 11.391 
180 1 49.1608 26.1826 11.391 
181 1 53.6014 23.6189 7.76526 
182 1 55.8217 27.4645 7.76526 
183 1 55.8217 30.0283 11.391 
184 1 53.6014 26.1826 11.391 
185 1 58.042 23.6189 7.76526 
186 1 60.2622 27.4645 7.76526 
187 1 60.2622 30.0283 11.391 
188 1 58.042 26.1826 11.391 
189 1 62.4825 23.6189 7.76526 
190 1 64.7028 27.4645 7.76526 
191 1 64.7028 30.0283 11.391 
192 1 62.4825 26.1826 11.391 
193 1 66.9231 23.6189 7.76526 
194 1 69.1434 27.4645 7.76526 
195 1 69.1434 30.0283 11.391 
196 1 66.9231 26.1826 11.391 
197 1 71.3636 23.6189 7.76526 
198 1 73.5839 27.4645 7.76526 
199 1 73.5839 30.0283 11.391 
200 1 71.3636 26.1826 11.391 
201 1 75.8042 23.6189 7.76526 
202 1 78.0245 27.4645 7.76526 
203 1 78.0245 30.0283 11.391 
204 1 75.8042 26.1826 11.391 
205 1 4.75523 31.3101 7.76526 
206 1 6.97551 35.1558 7.76526 
207 1 6.97551 37.7195 11.391 
208 1 4.75523 33.8739 11.391 
209 1 9.19579 31.3101 7.76526 
210 1 11.4161 35.1558 7.76526 
211 1 11.4161 37.7195 11.391 
212 1 9.19579 33.8739 11.391 
213 1 13.6364 31.3101 7.76526 
214 1 15.8566 35.1558 7.76526 
215 1 15.8566 37.7195 11.391 
216 1 13.6364 33.8739 11.391 
217 1 18.0769 31.3101 7.76526 
218 1 20.2972 35.1558 7.76526 
219 1 20.2972 37.7195 11.391 
220 1 18.0769 33.8739 11.391 
221 1 22.5175 31.3101 7.76526 
222 1 24.7378 35.1558 7.76526 
223 1 24.7378 37.7195 11.391 
224 1 22.5175 33.8739 11.391 
225 1 26.958 31.3101 7.76526 
226 1 29.1783 35.1558 7.76526 
227 1 29.1783 37.7195 11.391 
228 1 26.958 33.8739 11.391 
229 1 31.3986 31.3101 7.76526 
230 1 33.6189 35.1558 7.76526 
231 1 33.6189 37.7195 11.391 
232 1 31.3986 33.8739 11.391 
233 1 35.8392 31.3101 7.76526 
234 1 38.0594 35.1558 7.76526 
235 1 38.0594 37.7195 11.391 
236 1 35.8392 33.8739 11.391 
237 1 40.2797 31.3101 7.76526 
238 1 42.5 35.1558 7.76526 
239 1 42.5 37.7195 11.391 
240 1 40.2797 33.8739 11.391 
241 1 44.7203 31.3101 7.76526 
242 1 46.9406 35.1558 7.76526 
243 1 46.9406 37.7195 11.391 
244 1 44.7203 33.8739 11.391 
245 1 49.1608 31.3101 7.76526 
246 1 51.3811 35.1558 7.76526 
247 1 51.3811 37.7195 11.391 
248 1 49.1608 33.8739 11.391 
249 1 53.6014 31.3101 7.76526 
250 1 55.8217 35.1558 7.76526 
251 1 55.8217 37.7195 11.391 
252 1 53.6014 33.8739 11.391 
253 1 58.042 31.3101 7.76526 
254 1 60.2622 35.1558 7.76526 
255 1 60.2622 37.7195 11.391 
256 1 58.042 33.8739 11.391 
257 1 62.4825 31.3101 7.76526 
258 1 64.7028 35.1558 7.76526 
259 1 64.7028 37.7195 11.391 
260 1 62.4825 33.8739 11.391 
261 1 66.9231 31.3101 7.76526 
262 1 69.1434 35.1558 7.76526 
263 1 69.1434 37.7195 11.391 
264 1 66.9231 33.8739 11.391 
265 1 71.3636 31.3101 7.76526 
266 1 73.5839 35.1558 7.76526 
267 1 73.5839 37.7195 11.391 
268 1 71.3636 33.8739 11.391 
269 1 75.8042 31.3101 7.76526 
270 1 78.0245 35.1558 7.76526 
271 1 78.0245 37.7195 11.391 
272 1 75.8042 33.8739 11.391 
273 1 4.75523 39.0014 7.76526 
274 1 6.97551 42.8471 7.76526 
275 1 6.97551 45.4108 11.391 
276 1 4.75523 41.5652 11.391 
277 1 9.19579 39.0014 7.76526 
278 1 11.4161 42.8471 7.76526 
279 1 11.4161 45.4108 11.391 
280 1 9.19579 41.5652 11.391 
281 1 13.6364 39.0014 7.76526 
282 1 15.8566 42.8471 7.76526 
283 1 15.8566 45.4108 11.391 
284 1 13.6364 41.5652 11.391 
285 1 18.0769 39.0014 7.76526 
286 1 20.2972 42.8471 7.76526 
287 1 20.2972 45.4108 11.391 
288 1 18.0769 41.5652 11.391 
289 1 22.5175 39.0014 7.76526 
290 1 24.7378 42.8471 7.76526 
291 1 24.7378 45.4108 11.391 
292 1 22.5175 41.5652 11.391 
293 1 26.958 39.0014 7.76526 
294 1 29.1783 42.8471 7.76526 
295 1 29.1783 45.4108 11.391 
296 1 26.958 41.5652 11.391 
297 1 31.3986 39.0014 7.76526 
298 1 33.6189 42.8471 7.76526 
299 1 33.6189 45.4108 11.391 
300 1 31.3986 41.5652 11.391 
301 1 35.8392 39.0014 7.76526 
302 1 38.0594 42.8471 7.76526 
303 1 38.0594 45.4108 11.391 
304 1 35.8392 41.5652 11.391 
305 1 40.2797 39.0014 7.76526 
306 1 42.5 42.8471 7.76526 
307 1 42.5 45.4108 11.391 
308 1 40.2797 41.5652 11.391 
309 1 44.7203 39.0014 7.76526 
310 1 46.9406 42.8471 7.76526 
311 1 46.9406 45.4108 11.391 
312 1 44.7203 41.5652 11.391 
313 1 49.1608 39.0014 7.76526 
314 1 51.3811 42.8471 7.76526 
315 1 51.3811 45.4108 11.391 
316 1 49.1608 41.5652 11.391 
317 1 53.6014 39.0014 7.76526 
318 1 55.8217 42.8471 7.76526 
319 1 55.8217 45.4108 11.391 
320 1 53.6014 41.5652 11.391 
321 1 58.042 39.0014 7.76526 
322 1 60.2622 42.8471 7.76526 
323 1 60.2622 45.4108 11.391 
324 1 58.042 41.5652 11.391 
325 1 62.4825 39.0014 7.76526 
326 1 64.7028 42.8471 7.76526 
327 1 64.7028 45.4108 11.391 
328 1 62.4825 41.5652 11.391 
329 1 66.9231 39.0014 7.76526 
330 1 69.1434 42.8471 7.76526 
331 1 69.1434 45.4108 11.391 
332 1 66.9231 41.5652 11.391 
333 1 71.3636 39.0014 7.76526 
334 1 73.5839 42.8471 7.76526 
335 1 73.5839 45.4108 11.391 
336 1 71.3636 41.5652 11.391 
337 1 75.8042 39.0014 7.76526 
338 1 78.0245 42.8471 7.76526 
339 1 78.0245 45.4108 11.391 
340 1 75.8042 41.5652 11.391 
341 1 4.75523 46.6927 7.76526 
342 1 6.97551 50.5383 7.76526 
343 1 6.97551 53.1021 11.391 
344 1 4.75523 49.2564 11.391 
345 1 9.19579 46.6927 7.76526 
346 1 11.4161 50.5383 7.76526 
347 1 11.4161 53.1021 11.391 
348 1 9.19579 49.2564 11.391 
349 1 13.6364 46.6927 7.76526 
350 1 15.8566 50.5383 7.76526 
351 1 15.8566 53.1021 11.391 
352 1 13.6364 49.2564 11.391 
353 1 18.0769 46.6927 7.76526 
354 1 20.2972 50.5383 7.76526 
355 1 20.2972 53.1021 11.391 
356 1 18.0769 49.2564 11.391 
357 1 22.5175 46.6927 7.76526 
358 1 24.7378 50.5383 7.76526 
359 1 24.7378 53.1021 11.391 
360 1 22.5175 49.2564 11.391 
361 1 26.958 46.6927 7.76526 
362 1 29.1783 50.5383 7.76526 
363 1 29.1783 53.1021 11.391 
364 1 26.958 49.2564 11.391 
365 1 31.3986 46.6927 7.76526 
366 1 33.6189 50.5383 7.76526 
367 1 33.6189 53.1021 11.391 
368 1 31.3986 49.2564 11.391 
369 1 35.8392 46.6927 7.76526 
370 1 38.0594 50.5383 7.76526 
371 1 38.0594 53.1021 11.391 
372 1 35.8392 49.2564 11.391 
373 1 40.2797 46.6927 7.76526 
374 1 42.5 50.5383 7.76526 
375 1 42.5 53.1021 11.391 
376 1 40.2797 49.2564 11.391 
377 1 44.7203 46.6927 7.76526 
378 1 46.9406 50.5383 7.76526 
379 1 46.9406 53.1021 11.391 
380 1 44.7203 49.2564 11.391 
381 1 49.1608 46.6927 7.76526 
382 1 51.3811 50.5383 7.76526 
383 1 51.3811 53.1021 11.391 
384 1 49.1608 49.2564 11.391 
385 1 53.6014 46.6927 7.76526 
386 1 55.8217 50.5383 7.76526 
387 1 55.8217 53.1021 11.391 
388 1 53.6014 49.2564 11.391 
389 1 58.042 46.6927 7.76526 
390 1 60.2622 50.5383 7.76526 
391 1 60.2622 53.1021 11.391 
392 1 58.042 49.2564 11.391 
393 1 62.4825 46.6927 7.76526 
394 1 64.7028 50.5383 7.76526 
395 1 64.7028 53.1021 11.391 
396 1 62.4825 49.2564 11.391 
397 1 66.9231 46.6927 7.76526 
398 1 69.1434 50.5383 7.76526 
399 1 69.1434 53.1021 11.391 
400 1 66.9231 49.2564 11.391 
401 1 71.3636 46.6927 7.76526 
402 1 73.5839 50.5383 7.76526 
403 1 73.5839 53.1021 11.391 
404 1 71.3636 49.2564 11.391 
405 1 75.8042 46.6927 7.76526 
406 1 78.0245 50.5383 7.76526 
407 1 78.0245 53.1021 11.391 
408 1 75.8042 49.2564 11.391 
409 1 4.75523 54.384 7.76526 
410 1 6.97551 58.2296 7.76526 
411 1 6.97551 60.7934 11.391 
412 1 4.75523 56.9477 11.391 
413 1 9.19579 54.384 7.76526 
414 1 11.4161 58.2296 7.76526 
415 1 11.4161 60.7934 11.391 
416 1 9.19579 56.9477 11.391 
417 1 13.6364 54.384 7.76526 
418 1 15.8566 58.2296 7.76526 
419 1 15.8566 60.7934 11.391 
420 1 13.6364 56.9477 11.391 
421 1 18.0769 54.384 7.76526 
422 1 20.2972 58.2296 7.76526 
423 1 20.2972 60.7934 11.391 
424 1 18.0769 56.9477 11.391 
425 1 22.5175 54.384 7.76526 
426 1 24.7378 58.2296 7.76526 
427 1 24.7378 60.7934 11.391 
428 1 22.5175 56.9477 11.391 
429 1 26.958 54.384 7.76526 
430 1 29.1783 58.2296 7.76526 
431 1 29.1783 60.7934 11.391 
432 1 26.958 56.9477 11.391 
433 1 31.3986 54.384 7.76526 
434 1 33.6189 58.2296 7.76526 
435 1 33.6189 60.7934 11.391 
436 1 31.3986 56.9477 11.391 
437 1 35.8392 54.384 7.76526 
438 1 38.0594 58.2296 7.76526 
439 1 38.0594 60.7934 11.391 
440 1 35.8392 56.9477 11.391 
441 1 40.2797 54.384 7.76526 
442 1 42.5 58.2296 7.76526 
443 1 42.5 60.7934 11.391 
444 1 40.2797 56.9477 11.391 
445 1 44.7203 54.384 7.76526 
446 1 46.9406 58.2296 7.76526 
447 1 46.9406 60.7934 11.391 
448 1 44.7203 56.9477 11.391 
449 1 49.1608 54.384 7.76526 
450 1 51.3811 58.2296 7.76526 
451 1 51.3811 60.7934 11.391 
452 1 49.1608 56.9477 11.391 
453 1 53.6014 54.384 7.76526 
454 1 55.8217 58.2296 7.76526 
455 1 55.8217 60.7934 11.391 
456 1 53.6014 56.9477 11.391 
457 1 58.042 54.384 7.76526 
458 1 60.2622 58.2296 7.76526 
459 1 60.2622 60.7934 11.391 
460 1 58.042 56.9477 11.391 
461 1 62.4825 54.384 7.76526 
462 1 64.7028 58.2296 7.76526 
463 1 64.7028 60.7934 11.391 
464 1 62.4825 56.9477 11.391 
465 1 66.9231 54.384 7.76526 
466 1 69.1434 58.2296 7.76526 
467 1 69.1434 60.7934 11.391 
468 1 66.9231 56.9477 11.391 
469 1 71.3636 54.384 7.76526 
470 1 73.5839 58.2296 7.76526 
471 1 73.5839 60.7934 11.391 
472 1 71.3636 56.9477 11.391 
473 1 75.8042 54.384 7.76526 
474 1 78.0245 58.2296 7.76526 
475 1 78.0245 60.7934 11.391 
476 1 75.8042 56.9477 11.391 
477 1 4.75523 62.0752 7.76526 
478 1 6.97551 65.9209 7.76526 
479 1 6.97551 68.4846 11.391 
480 1 4.75523 64.639 11.391 
481 1 9.19579 62.0752 7.76526 
482 1 11.4161 65.9209 7.76526 
483 1 11.4161 68.4846 11.391 
484 1 9.19579 64.639 11.391 
485 1 13.6364 62.0752 7.76526 
486 1 15.8566 65.9209 7.76526 
487 1 15.8566 68.4846 11.391 
488 1 13.6364 64.639 11.391 
489 1 18.0769 62.0752 7.76526 
490 1 20.2972 65.9209 7.76526 
491 1 20.2972 68.4846 11.391 
492 1 18.0769 64.639 11.391 
493 1 22.5175 62.0752 7.76526 
494 1 24.7378 65.9209 7.76526 
495 1 24.7378 68.4846 11.391 
496 1 22.5175 64.639 11.391 
497 1 26.958 62.0752 7.76526 
498 1 29.1783 65.9209 7.76526 
499 1 29.1783 68.4846 11.391 
500 1 26.958 64.639 11.391 
501 1 31.3986 62.0752 7.76526 
502 1 33.6189 65.9209 7.76526 
503 1 33.6189 68.4846 11.391 
504 1 31.3986 64.639 11.391 
505 1 35.8392 62.0752 7.76526 
506 1 38.0594 65.9209 7.76526 
507 1 38.0594 68.4846 11.391 
508 1 35.8392 64.639 11.391 
509 1 40.2797 62.0752 7.76526 
510 1 42.5 65.9209 7.76526 
511 1 42.5 68.4846 11.391 
512 1 40.2797 64.639 11.391 
513 1 44.7203 62.0752 7.76526 
514 1 46.9406 65.9209 7.76526 
515 1 46.9406 68.4846 11.391 
516 1 44.7203 64.639 11.391 
517 1 49.1608 62.0752 7.76526 
518 1 51.3811 65.9209 7.76526 
519 1 51.3811 68.4846 11.391 
520 1 49.1608 64.639 11.391 
521 1 53.6014 62.0752 7.76526 
522 1 55.8217 65.9209 7.76526 
523 1 55.8217 68.4846 11.391 
524 1 53.6014 64.639 11.391 
525 1 58.042 62.0752 7.76526 
526 1 60.2622 65.9209 7.76526 
527 1 60.2622 68.4846 11.391 
528 1 58.042 64.639 11.391 
529 1 62.4825 62.0752 7.76526 
530 1 64.7028 65.9209 7.76526 
531 1 64.7028 68.4846 11.391 
532 1 62.4825 64.639 11.391 
533 1 66.9231 62.0752 7.76526 
534 1 69.1434 65.9209 7.76526 
535 1 69.1434 68.4846 11.391 
536 1 66.9231 64.639 11.391 
537 1 71.3636 62.0752 7.76526 
538 1 73.5839 65.9209 7.76526 
539 1 73.5839 68.4846 11.391 
540 1 71.3636 64.639 11.391 
541 1 75.8042 62.0752 7.76526 
542 1 78.0245 65.9209 7.76526 
543 1 78.0245 68.4846 11.391 
544 1 75.8042 64.639 11.391 
545 1 4.75523 69.7665 7.76526 
546 1 6.97551 73.6122 7.76526 
547 1 6.97551 76.1759 11.391 
548 1 4.75523 72.3303 11.391 
549 1 9.19579 69.7665 7.76526 
550 1 11.4161 73.6122 7.76526 
551 1 11.4161 76.1759 11.391 
552 1 9.19579 72.3303 11.391 
553 1 13.6364 69.7665 7.76526 
554 1 15.8566 73.6122 7.76526 
555 1 15.8566 76.1759 11.391 
556 1 13.6364 72.3303 11.391 
557 1 18.0769 69.7665 7.76526 
558 1 20.2972 73.6122 7.76526 
559 1 20.2972 76.1759 11.391 
560 1 18.0769 72.3303 11.391 
561 1 22.5175 69.7665 7.76526 
562 1 24.7378 73.6122 7.76526 
563 1 24.7378 76.1759 11.391 
564 1 22.5175 72.3303 11.391 
565 1 26.958 69.7665 7.76526 
566 1 29.1783 73.6122 7.76526 
567 1 29.1783 76.1759 11.391 
568 1 26.958 72.3303 11.391 
569 1 31.3986 69.7665 7.76526 
570 1 33.6189 73.6122 7.76526 
571 1 33.6189 76.1759 11.391 
572 1 31.3986 72.3303 11.391 
573 1 35.8392 69.7665 7.76526 
574 1 38.0594 73.6122 7.76526 
575 1 38.0594 76.1759 11.391 
576 1 35.8392 72.3303 11.391 
577 1 40.2797 69.7665 7.76526 
578 1 42.5 73.6122 7.76526 
579 1 42.5 76.1759 11.391 
580 1 40.2797 72.3303 11.391 
581 1 44.7203 69.7665 7.76526 
582 1 46.9406 73.6122 7.76526 
583 1 46.9406 76.1759 11.391 
584 1 44.7203 72.3303 11.391 
585 1 49.1608 69.7665 7.76526 
586 1 51.3811 73.6122 7.76526 
587 1 51.3811 76.1759 11.391 
588 1 49.1608 72.3303 11.391 
589 1 53.6014 69.7665 7.76526 
590 1 55.8217 73.6122 7.76526 
591 1 55.8217 76.1759 11.391 
592 1 53.6014 72.3303 11.391 
593 1 58.042 69.7665 7.76526 
594 1 60.2622 73.6122 7.76526 
595 1 60.2622 76.1759 11.391 
596 1 58.042 72.3303 11.391 
597 1 62.4825 69.7665 7.76526 
598 1 64.7028 73.6122 7.76526 
599 1 64.7028 76.1759 11.391 
600 1 62.4825 72.3303 11.391 
601 1 66.9231 69.7665 7.76526 
602 1 69.1434 73.6122 7.76526 
603 1 69.1434 76.1759 11.391 
604 1 66.9231 72.3303 11.391 
605 1 71.3636 69.7665 7.76526 
606 1 73.5839 73.6122 7.76526 
607 1 73.5839 76.1759 11.391 
608 1 71.3636 72.3303 11.391 
609 1 75.8042 69.7665 7.76526 
610 1 78.0245 73.6122 7.76526 
611 1 78.0245 76.1759 11.391 
612 1 75.8042 72.3303 11.391 
613 1 4.75523 77.4578 7.76526 
614 1 6.97551 81.3034 7.76526 
615 1 6.97551 83.8672 11.391 
616 1 4.75523 80.0216 11.391 
617 1 9.19579 77.4578 7.76526 
618 1 11.4161 81.3034 7.76526 
619 1 11.4161 83.8672 11.391 
620 1 9.19579 80.0216 11.391 
621 1 13.6364 77.4578 7.76526 
622 1 15.8566 81.3034 7.76526 
623 1 15.8566 83.8672 11.391 
624 1 13.6364 80.0216 11.391 
625 1 18.0769 77.4578 7.76526 
626 1 20.2972 81.3034 7.76526 
627 1 20.2972 83.8672 11.391 
628 1 18.0769 80.0216 11.391 
629 1 22.5175 77.4578 7.76526 
630 1 24.7378 81.3034 7.76526 
631 1 24.7378 83.8672 11.391 
632 1 22.5175 80.0216 11.391 
633 1 26.958 77.4578 7.76526 
634 1 29.1783 81.3034 7.76526 
635 1 29.1783 83.8672 11.391 
636 1 26.958 80.0216 11.391 
637 1 31.3986 77.4578 7.76526 
638 1 33.6189 81.3034 7.76526 
639 1 33.6189 83.8672 11.391 
640 1 31.3986 80.0216 11.391 
641 1 35.8392 77.4578 7.76526 
642 1 38.0594 81.3034 7.76526 
643 1 38.0594 83.8672 11.391 
644 1 35.8392 80.0216 11.391 
645 1 40.2797 77.4578 7.76526 
646 1 42.5 81.3034 7.76526 
647 1 42.5 83.8672 11.391 
648 1 40.2797 80.0216 11.391 
649 1 44.7203 77.4578 7.76526 
650 1 46.9406 81.3034 7.76526 
651 1 46.9406 83.8672 11.391 
652 1 44.7203 80.0216 11.391 
653 1 49.1608 77.4578 7.76526 
654 1 51.3811 81.3034 7.76526 
655 1 51.3811 83.8672 11.391 
656 1 49.1608 80.0216 11.391 
657 1 53.6014 77.4578 7.76526 
658 1 55.8217 81.3034 7.76526 
659 1 55.8217 83.8672 11.391 
660 1 53.6014 80.0216 11.391 
661 1 58.042 77.4578 7.76526 
662 1 60.2622 81.3034 7.76526 
663 1 60.2622 83.8672 11.391 
664 1 58.042 80.0216 11.391 
665 1 62.4825 77.4578 7.76526 
666 1 64.7028 81.3034 7.76526 
667 1 64.7028 83.8672 11.391 
668 1 62.4825 80.0216 11.391 
669 1 66.9231 77.4578 7.76526 
670 1 69.1434 81.3034 7.76526 
671 1 69.1434 83.8672 11.391 
672 1 66.9231 80.0216 11.391 
673 1 71.3636 77.4578 7.76526 
674 1 73.5839 81.3034 7.76526 
675 1 73.5839 83.8672 11.391 
676 1 71.3636 80.0216 11.391 
677 1 75.8042 77.4578 7.76526 
678 1 78.0245 81.3034 7.76526 
679 1 78.0245 83.8672 11.391 
680 1 75.8042 80.0216 11.391 
681 1 4.75523 85.1491 7.76526 
682 1 6.97551 88.9947 7.76526 
683 1 6.97551 91.5585 11.391 
684 1 4.75523 87.7128 11.391 
685 1 9.19579 85.1491 7.76526 
686 1 11.4161 88.9947 7.76526 
687 1 11.4161 91.5585 11.391 
688 1 9.19579 87.7128 11.391 
689 1 13.6364 85.1491 7.76526 
690 1 15.8566 88.9947 7.76526 
691 1 15.8566 91.5585 11.391 
692 1 13.6364 87.7128 11.391 
693 1 18.0769 85.1491 7.76526 
694 1 20.2972 88.9947 7.76526 
695 1 20.2972 91.5585 11.391 
696 1 18.0769 87.7128 11.391 
697 1 22.5175 85.1491 7.76526 
698 1 24.7378 88.9947 7.76526 
699 1 24.7378 91.5585 11.391 
700 1 22.5175 87.7128 11.391 
701 1 26.958 85.1491 7.76526 
702 1 29.1783 88.9947 7.76526 
703 1 29.1783 91.5585 11.391 
704 1 26.958 87.7128 11.391 
705 1 31.3986 85.1491 7.76526 
706 1 33.6189 88.9947 7.76526 
707 1 33.6189 91.5585 11.391 
708 1 31.3986 87.7128 11.391 
709 1 35.8392 85.1491 7.76526 
710 1 38.0594 88.9947 7.76526 
711 1 38.0594 91.5585 11.391 
712 1 35.8392 87.7128 11.391 
713 1 40.2797 85.1491 7.76526 
714 1 42.5 88.9947 7.76526 
715 1 42.5 91.5585 11.391 
716 1 40.2797 87.7128 11.391 
717 1 44.7203 85.1491 7.76526 
718 1 46.9406 88.9947 7.76526 
719 1 46.9406 91.5585 11.391 
720 1 44.7203 87.7128 11.391 
721 1 49.1608 85.1491 7.76526 
722 1 51.3811 88.9947 7.76526 
723 1 51.3811 91.5585 11.391 
724 1 49.1608 87.7128 11.391 
725 1 53.6014 85.1491 7.76526 
726 1 55.8217 88.9947 7.76526 
727 1 55.8217 91.5585 11.391 
728 1 53.6014 87.7128 11.391 
729 1 58.042 85.1491 7.76526 
730 1 60.2622 88.9947 7.76526 
731 1 60.2622 91.5585 11.391 
732 1 58.042 87.7128 11.391 
733 1 62.4825 85.1491 7.76526 
734 1 64.7028 88.9947 7.76526 
735 1 64.7028 91.5585 11.391 
736 1 62.4825 87.7128 11.391 
737 1 66.9231 85.1491 7.76526 
738 1 69.1434 88.9947 7.76526 
739 1 69.1434 91.5585 11.391 
740 1 66.9231 87.7128 11.391 
741 1 71.3636 85.1491 7.76526 
742 1 73.5839 88.9947 7.76526 
743 1 73.5839 91.5585 11.391 
744 1 71.3636 87.7128 11.391 
745 1 75.8042 85.1491 7.76526 
746 1 78.0245 88.9947 7.76526 
747 1 78.0245 91.5585 11.391 
748 1 75.8042 87.7128 11.391 
749 1 4.75523 92.8404 7.76526 
750 1 6.97551 96.686 7.76526 
751 1 6.97551 99.2497 11.391 
752 1 4.75523 95.4041 11.391 
753 1 9.19579 92.8404 7.76526 
754 1 11.4161 96.686 7.76526 
755 1 11.4161 99.2497 11.391 
756 1 9.19579 95.4041 11.391 
757 1 13.6364 92.8404 7.76526 
758 1 15.8566 96.686 7.76526 
759 1 15.8566 99.2497 11.391 
760 1 13.6364 95.4041 11.391 
761 1 18.0769 92.8404 7.76526 
762 1 20.2972 96.686 7.76526 
763 1 20.2972 99.2497 11.391 
764 1 18.0769 95.4041 11.391 
765 1 22.5175 92.8404 7.76526 
766 1 24.7378 96.686 7.76526 
767 1 24.7378 99.2497 11.391 
768 1 22.5175 95.4041 11.391 
769 1 26.958 92.8404 7.76526 
770 1 29.1783 96.686 7.76526 
771 1 29.1783 99.2497 11.391 
772 1 26.958 95.4041 11.391 
773 1 31.3986 92.8404 7.76526 
774 1 33.6189 96.686 7.76526 
775 1 33.6189 99.2497 11.391 
776 1 31.3986 95.4041 11.391 
777 1 35.8392 92.8404 7.76526 
778 1 38.0594 96.686 7.76526 
779 1 38.0594 99.2497 11.391 
780 1 35.8392 95.4041 11.391 
781 1 40.2797 92.8404 7.76526 
782 1 42.5 96.686 7.76526 
783 1 42.5 99.2497 11.391 
784 1 40.2797 95.4041 11.391 
785 1 44.7203 92.8404 7.76526 
786 1 46.9406 96.686 7.76526 
787 1 46.9406 99.2497 11.391 
788 1 44.7203 95.4041 11.391 
789 1 49.1608 92.8404 7.76526 
790 1 51.3811 96.686 7.76526 
791 1 51.3811 99.2497 11.391 
792 1 49.1608 95.4041 11.391 
793 1 53.6014 92.8404 7.76526 
794 1 55.8217 96.686 7.76526 
795 1 55.8217 99.2497 11.391 
796 1 53.6014 95.4041 11.391 
797 1 58.042 92.8404 7.76526 
798 1 60.2622 96.686 7.76526 
799 1 60.2622 99.2497 11.391 
800 1 58.042 95.4041 11.391 
801 1 62.4825 92.8404 7.76526 
802 1 64.7028 96.686 7.76526 
803 1 64.7028 99.2497 11.391 
804 1 62.4825 95.4041 11.391 
805 1 66.9231 92.8404 7.76526 
806 1 69.1434 96.686 7.76526 
807 1 69.1434 99.2497 11.391 
808 1 66.9231 95.4041 11.391 
809 1 71.3636 92.8404 7.76526 
810 1 73.5839 96.686 7.76526 
811 1 73.5839 99.2497 11.391 
812 1 71.3636 95.4041 11.391 
813 1 75.8042 92.8404 7.76526 
814 1 78.0245 96.686 7.76526 
815 1 78.0245 99.2497 11.391 
816 1 75.8042 95.4041 11.391 
817 1 4.75523 100.532 7.76526 
818 1 6.97551 104.377 7.76526 
819 1 6.97551 106.941 11.391 
820 1 4.75523 103.095 11.391 
821 1 9.19579 100.532 7.76526 
822 1 11.4161 104.377 7.76526 
823 1 11.4161 106.941 11.391 
824 1 9.19579 103.095 11.391 
825 1 13.6364 100.532 7.76526 
826 1 15.8566 104.377 7.76526 
827 1 15.8566 106.941 11.391 
828 1 13.6364 103.095 11.391 
829 1 18.0769 100.532 7.76526 
830 1 20.2972 104.377 7.76526 
831 1 20.2972 106.941 11.391 
832 1 18.0769 103.095 11.391 
833 1 22.5175 100.532 7.76526 
834 1 24.7378 104.377 7.76526 
835 1 24.7378 106.941 11.391 
836 1 22.5175 103.095 11.391 
837 1 26.958 100.532 7.76526 
838 1 29.1783 104.377 7.76526 
839 1 29.1783 106.941 11.391 
840 1 26.958 103.095 11.391 
841 1 31.3986 100.532 7.76526 
842 1 33.6189 104.377 7.76526 
843 1 33.6189 106.941 11.391 
844 1 31.3986 103.095 11.391 
845 1 35.8392 100.532 7.76526 
846 1 38.0594 104.377 7.76526 
847 1 38.0594 106.941 11.391 
848 1 35.8392 103.095 11.391 
849 1 40.2797 100.532 7.76526 
850 1 42.5 104.377 7.76526 
851 1 42.5 106.941 11.391 
852 1 40.2797 103.095 11.391 
853 1 44.7203 100.532 7.76526 
854 1 46.9406 104.377 7.76526 
855 1 46.9406 106.941 11.391 
856 1 44.7203 103.095 11.391 
857 1 49.1608 100.532 7.76526 
858 1 51.3811 104.377 7.76526 
859 1 51.3811 106.941 11.391 
860 1 49.1608 103.095 11.391 
861 1 53.6014 100.532 7.76526 
862 1 55.8217 104.377 7.76526 
863 1 55.8217 106.941 11.391 
864 1 53.6014 103.095 11.391 
865 1 58.042 100.532 7.76526 
866 1 60.2622 104.377 7.76526 
867 1 60.2622 106.941 11.391 
868 1 58.042 103.095 11.391 
869 1 62.4825 100.532 7.76526 
870 1 64.7028 104.377 7.76526 
871 1 64.7028 106.941 11.391 
872 1 62.4825 103.095 11.391 
873 1 66.9231 100.532 7.76526 
874 1 69.1434 104.377 7.76526 
875 1 69.1434 106.941 11.391 
876 1 66.9231 103.095 11.391 
877 1 71.3636 100.532 7.76526 
878 1 73.5839 104.377 7.76526 
879 1 73.5839 106.941 11.391 
880 1 71.3636 103.095 11.391 
881 1 75.8042 100.532 7.76526 
882 1 78.0245 104.377 7.76526 
883 1 78.0245 106.941 11.391 
884 1 75.8042 103.095 11.391 
885 1 4.75523 108.223 7.76526 
886 1 6.97551 112.069 7.76526 
887 1 6.97551 114.632 11.391 
888 1 4.75523 110.787 11.391 
889 1 9.19579 108.223 7.76526 
890 1 11.4161 112.069 7.76526 
891 1 11.4161 114.632 11.391 
892 1 9.19579 110.787 11.391 
893 1 13.6364 108.223 7.76526 
894 1 15.8566 112.069 7.76526 
895 1 15.8566 114.632 11.391 
896 1 13.6364 110.787 11.391 
897 1 18.0769 108.223 7.76526 
898 1 20.2972 112.069 7.76526 
899 1 20.2972 114.632 11.391 
900 1 18.0769 110.787 11.391 
901 1 22.5175 108.223 7.76526 
902 1 24.7378 112.069 7.76526 
903 1 24.7378 114.632 11.391 
904 1 22.5175 110.787 11.391 
905 1 26.958 108.223 7.76526 
906 1 29.1783 112.069 7.76526 
907 1 29.1783 114.632 11.391 
908 1 26.958 110.787 11.391 
909 1 31.3986 108.223 7.76526 
910 1 33.6189 112.069 7.76526 
911 1 33.6189 114.632 11.391 
912 1 31.3986 110.787 11.391 
913 1 35.8392 108.223 7.76526 
914 1 38.0594 112.069 7.76526 
915 1 38.0594 114.632 11.391 
916 1 35.8392 110.787 11.391 
917 1 40.2797 108.223 7.76526 
918 1 42.5 112.069 7.76526 
919 1 42.5 114.632 11.391 
920 1 40.2797 110.787 11.391 
921 1 44.7203 108.223 7.76526 
922 1 46.9406 112.069 7.76526 
923 1 46.9406 114.632 11.391 
924 1 44.7203 110.787 11.391 
925 1 49.1608 108.223 7.76526 
926 1 51.3811 112.069 7.76526 
927 1 51.3811 114.632 11.391 
928 1 49.1608 110.787 11.391 
929 1 53.6014 108.223 7.76526 
930 1 55.8217 112.069 7.76526 
931 1 55.8217 114.632 11.391 
932 1 53.6014 110.787 11.391 
933 1 58.042 108.223 7.76526 
934 1 60.2622 112.069 7.76526 
935 1 60.2622 114.632 11.391 
936 1 58.042 110.787 11.391 
937 1 62.4825 108.223 7.76526 
938 1 64.7028 112.069 7.76526 
939 1 64.7028 114.632 11.391 
940 1 62.4825 110.787 11.391 
941 1 66.9231 108.223 7.76526 
942 1 69.1434 112.069 7.76526 
943 1 69.1434 114.632 11.391 
944 1 66.9231 110.787 11.391 
945 1 71.3636 108.223 7.76526 
946 1 73.5839 112.069 7.76526 
947 1 73.5839 114.632 11.391 
948 1 71.3636 110.787 11.391 
949 1 75.8042 108.223 7.76526 
950 1 78.0245 112.069 7.76526 
951 1 78.0245 114.632 11.391 
952 1 75.8042 110.787 11.391 
953 1 4.75523 115.914 7.76526 
954 1 6.97551 119.76 7.76526 
955 1 6.97551 122.324 11.391 
956 1 4.75523 118.478 11.391 
957 1 9.19579 115.914 7.76526 
958 1 11.4161 119.76 7.76526 
959 1 11.4161 122.324 11.391 
960 1 9.19579 118.478 11.391 
961 1 13.6364 115.914 7.76526 
962 1 15.8566 119.76 7.76526 
963 1 15.8566 122.324 11.391 
964 1 13.6364 118.478 11.391 
965 1 18.0769 115.914 7.76526 
966 1 20.2972 119.76 7.76526 
967 1 20.2972 122.324 11.391 
968 1 18.0769 118.478 11.391 
969 1 22.5175 115.914 7.76526 
970 1 24.7378 119.76 7.76526 
971 1 24.7378 122.324 11.391 
972 1 22.5175 118.478 11.391 
973 1 26.958 115.914 7.76526 
974 1 29.1783 119.76 7.76526 
975 1 29.1783 122.324 11.391 
976 1 26.958 118.478 11.391 
977 1 31.3986 115.914 7.76526 
978 1 33.6189 119.76 7.76526 
979 1 33.6189 122.324 11.391 
980 1 31.3986 118.478 11.391 
981 1 35.8392 115.914 7.76526 
982 1 38.0594 119.76 7.76526 
983 1 38.0594 122.324 11.391 
984 1 35.8392 118.478 11.391 
985 1 40.2797 115.914 7.76526 
986 1 42.5 119.76 7.76526 
987 1 42.5 122.324 11.391 