ITEM: TIMESTEP
75
ITEM: NUMBER OF ATOMS
9826
ITEM: BOX BOUNDS pp pp pp
1.5308354223397053e+01 6.9691645776602570e+01
1.5308354223397053e+01 6.9691645776602570e+01
1.5308354223397053e+01 6.9691645776602570e+01
ITEM: ATOMS id type xu yu zu 
1 2 15.3084 15.3084 15.3084 
2 2 16.9079 16.9079 16.9079 
3 2 18.5074 15.3084 15.3084 
4 2 20.1069 16.9079 16.9079 
5 2 21.7064 15.3084 15.3084 
6 2 23.3059 16.9079 16.9079 
7 2 24.9054 15.3084 15.3084 
8 2 26.5049 16.9079 16.9079 
9 2 28.1044 15.3084 15.3084 
10 2 29.7039 16.9079 16.9079 
11 2 31.3034 15.3084 15.3084 
12 2 32.9029 16.9079 16.9079 
13 2 34.5025 15.3084 15.3084 
14 2 36.102 16.9079 16.9079 
15 2 37.7015 15.3084 15.3084 
16 2 39.301 16.9079 16.9079 
17 2 40.9005 15.3084 15.3084 
18 2 42.5 16.9079 16.9079 
19 2 44.0995 15.3084 15.3084 
20 2 45.699 16.9079 16.9079 
21 2 47.2985 15.3084 15.3084 
22 2 48.898 16.9079 16.9079 
23 2 50.4975 15.3084 15.3084 
24 2 52.0971 16.9079 16.9079 
25 2 53.6966 15.3084 15.3084 
26 2 55.2961 16.9079 16.9079 
27 2 56.8956 15.3084 15.3084 
28 2 58.4951 16.9079 16.9079 
29 2 60.0946 15.3084 15.3084 
30 2 61.6941 16.9079 16.9079 
31 2 63.2936 15.3084 15.3084 
32 2 64.8931 16.9079 16.9079 
33 2 66.4926 15.3084 15.3084 
34 2 68.0921 16.9079 16.9079 
35 2 15.3084 18.5074 15.3084 
36 2 16.9079 20.1069 16.9079 
37 2 18.5074 18.5074 15.3084 
38 2 20.1069 20.1069 16.9079 
39 2 21.7064 18.5074 15.3084 
40 2 23.3059 20.1069 16.9079 
41 2 24.9054 18.5074 15.3084 
42 2 26.5049 20.1069 16.9079 
43 2 28.1044 18.5074 15.3084 
44 2 29.7039 20.1069 16.9079 
45 2 31.3034 18.5074 15.3084 
46 2 32.9029 20.1069 16.9079 
47 2 34.5025 18.5074 15.3084 
48 2 36.102 20.1069 16.9079 
49 2 37.7015 18.5074 15.3084 
50 2 39.301 20.1069 16.9079 
51 2 40.9005 18.5074 15.3084 
52 2 42.5 20.1069 16.9079 
53 2 44.0995 18.5074 15.3084 
54 2 45.699 20.1069 16.9079 
55 2 47.2985 18.5074 15.3084 
56 2 48.898 20.1069 16.9079 
57 2 50.4975 18.5074 15.3084 
58 2 52.0971 20.1069 16.9079 
59 2 53.6966 18.5074 15.3084 
60 2 55.2961 20.1069 16.9079 
61 2 56.8956 18.5074 15.3084 
62 2 58.4951 20.1069 16.9079 
63 2 60.0946 18.5074 15.3084 
64 2 61.6941 20.1069 16.9079 
65 2 63.2936 18.5074 15.3084 
66 2 64.8931 20.1069 16.9079 
67 2 66.4926 18.5074 15.3084 
68 2 68.0921 20.1069 16.9079 
69 2 15.3084 21.7064 15.3084 
70 2 16.9079 23.3059 16.9079 
71 2 18.5074 21.7064 15.3084 
72 2 20.1069 23.3059 16.9079 
73 2 21.7064 21.7064 15.3084 
74 2 23.3059 23.3059 16.9079 
75 2 24.9054 21.7064 15.3084 
76 2 26.5049 23.3059 16.9079 
77 2 28.1044 21.7064 15.3084 
78 2 29.7039 23.3059 16.9079 
79 2 31.3034 21.7064 15.3084 
80 2 32.9029 23.3059 16.9079 
81 2 34.5025 21.7064 15.3084 
82 2 36.102 23.3059 16.9079 
83 2 37.7015 21.7064 15.3084 
84 2 39.301 23.3059 16.9079 
85 2 40.9005 21.7064 15.3084 
86 2 42.5 23.3059 16.9079 
87 2 44.0995 21.7064 15.3084 
88 2 45.699 23.3059 16.9079 
89 2 47.2985 21.7064 15.3084 
90 2 48.898 23.3059 16.9079 
91 2 50.4975 21.7064 15.3084 
92 2 52.0971 23.3059 16.9079 
93 2 53.6966 21.7064 15.3084 
94 2 55.2961 23.3059 16.9079 
95 2 56.8956 21.7064 15.3084 
96 2 58.4951 23.3059 16.9079 
97 2 60.0946 21.7064 15.3084 
98 2 61.6941 23.3059 16.9079 
99 2 63.2936 21.7064 15.3084 
100 2 64.8931 23.3059 16.9079 
101 2 66.4926 21.7064 15.3084 
102 2 68.0921 23.3059 16.9079 
103 2 15.3084 24.9054 15.3084 
104 2 16.9079 26.5049 16.9079 
105 2 18.5074 24.9054 15.3084 
106 2 20.1069 26.5049 16.9079 
107 2 21.7064 24.9054 15.3084 
108 2 23.3059 26.5049 16.9079 
109 2 24.9054 24.9054 15.3084 
110 2 26.5049 26.5049 16.9079 
111 2 28.1044 24.9054 15.3084 
112 2 29.7039 26.5049 16.9079 
113 2 31.3034 24.9054 15.3084 
114 2 32.9029 26.5049 16.9079 
115 2 34.5025 24.9054 15.3084 
116 2 36.102 26.5049 16.9079 
117 2 37.7015 24.9054 15.3084 
118 2 39.301 26.5049 16.9079 
119 2 40.9005 24.9054 15.3084 
120 2 42.5 26.5049 16.9079 
121 2 44.0995 24.9054 15.3084 
122 2 45.699 26.5049 16.9079 
123 2 47.2985 24.9054 15.3084 
124 2 48.898 26.5049 16.9079 
125 2 50.4975 24.9054 15.3084 
126 2 52.0971 26.5049 16.9079 
127 2 53.6966 24.9054 15.3084 
128 2 55.2961 26.5049 16.9079 
129 2 56.8956 24.9054 15.3084 
130 2 58.4951 26.5049 16.9079 
131 2 60.0946 24.9054 15.3084 
132 2 61.6941 26.5049 16.9079 
133 2 63.2936 24.9054 15.3084 
134 2 64.8931 26.5049 16.9079 
135 2 66.4926 24.9054 15.3084 
136 2 68.0921 26.5049 16.9079 
137 2 15.3084 28.1044 15.3084 
138 2 16.9079 29.7039 16.9079 
139 2 18.5074 28.1044 15.3084 
140 2 20.1069 29.7039 16.9079 
141 2 21.7064 28.1044 15.3084 
142 2 23.3059 29.7039 16.9079 
143 2 24.9054 28.1044 15.3084 
144 2 26.5049 29.7039 16.9079 
145 2 28.1044 28.1044 15.3084 
146 2 29.7039 29.7039 16.9079 
147 2 31.3034 28.1044 15.3084 
148 2 32.9029 29.7039 16.9079 
149 2 34.5025 28.1044 15.3084 
150 2 36.102 29.7039 16.9079 
151 2 37.7015 28.1044 15.3084 
152 2 39.301 29.7039 16.9079 
153 2 40.9005 28.1044 15.3084 
154 2 42.5 29.7039 16.9079 
155 2 44.0995 28.1044 15.3084 
156 2 45.699 29.7039 16.9079 
157 2 47.2985 28.1044 15.3084 
158 2 48.898 29.7039 16.9079 
159 2 50.4975 28.1044 15.3084 
160 2 52.0971 29.7039 16.9079 
161 2 53.6966 28.1044 15.3084 
162 2 55.2961 29.7039 16.9079 
163 2 56.8956 28.1044 15.3084 
164 2 58.4951 29.7039 16.9079 
165 2 60.0946 28.1044 15.3084 
166 2 61.6941 29.7039 16.9079 
167 2 63.2936 28.1044 15.3084 
168 2 64.8931 29.7039 16.9079 
169 2 66.4926 28.1044 15.3084 
170 2 68.0921 29.7039 16.9079 
171 2 15.3084 31.3034 15.3084 
172 2 16.9079 32.9029 16.9079 
173 2 18.5074 31.3034 15.3084 
174 2 20.1069 32.9029 16.9079 
175 2 21.7064 31.3034 15.3084 
176 2 23.3059 32.9029 16.9079 
177 2 24.9054 31.3034 15.3084 
178 2 26.5049 32.9029 16.9079 
179 2 28.1044 31.3034 15.3084 
180 2 29.7039 32.9029 16.9079 
181 2 31.3034 31.3034 15.3084 
182 2 32.9029 32.9029 16.9079 
183 2 34.5025 31.3034 15.3084 
184 2 36.102 32.9029 16.9079 
185 2 37.7015 31.3034 15.3084 
186 2 39.301 32.9029 16.9079 
187 2 40.9005 31.3034 15.3084 
188 2 42.5 32.9029 16.9079 
189 2 44.0995 31.3034 15.3084 
190 2 45.699 32.9029 16.9079 
191 2 47.2985 31.3034 15.3084 
192 2 48.898 32.9029 16.9079 
193 2 50.4975 31.3034 15.3084 
194 2 52.0971 32.9029 16.9079 
195 2 53.6966 31.3034 15.3084 
196 2 55.2961 32.9029 16.9079 
197 2 56.8956 31.3034 15.3084 
198 2 58.4951 32.9029 16.9079 
199 2 60.0946 31.3034 15.3084 
200 2 61.6941 32.9029 16.9079 
201 2 63.2936 31.3034 15.3084 
202 2 64.8931 32.9029 16.9079 
203 2 66.4926 31.3034 15.3084 
204 2 68.0921 32.9029 16.9079 
205 2 15.3084 34.5025 15.3084 
206 2 16.9079 36.102 16.9079 
207 2 18.5074 34.5025 15.3084 
208 2 20.1069 36.102 16.9079 
209 2 21.7064 34.5025 15.3084 
210 2 23.3059 36.102 16.9079 
211 2 24.9054 34.5025 15.3084 
212 2 26.5049 36.102 16.9079 
213 2 28.1044 34.5025 15.3084 
214 2 29.7039 36.102 16.9079 
215 2 31.3034 34.5025 15.3084 
216 2 32.9029 36.102 16.9079 
217 2 34.5025 34.5025 15.3084 
218 2 36.102 36.102 16.9079 
219 2 37.7015 34.5025 15.3084 
220 2 39.301 36.102 16.9079 
221 2 40.9005 34.5025 15.3084 
222 2 42.5 36.102 16.9079 
223 2 44.0995 34.5025 15.3084 
224 2 45.699 36.102 16.9079 
225 2 47.2985 34.5025 15.3084 
226 2 48.898 36.102 16.9079 
227 2 50.4975 34.5025 15.3084 
228 2 52.0971 36.102 16.9079 
229 2 53.6966 34.5025 15.3084 
230 2 55.2961 36.102 16.9079 
231 2 56.8956 34.5025 15.3084 
232 2 58.4951 36.102 16.9079 
233 2 60.0946 34.5025 15.3084 
234 2 61.6941 36.102 16.9079 
235 2 63.2936 34.5025 15.3084 
236 2 64.8931 36.102 16.9079 
237 2 66.4926 34.5025 15.3084 
238 2 68.0921 36.102 16.9079 
239 2 15.3084 37.7015 15.3084 
240 2 16.9079 39.301 16.9079 
241 2 18.5074 37.7015 15.3084 
242 2 20.1069 39.301 16.9079 
243 2 21.7064 37.7015 15.3084 
244 2 23.3059 39.301 16.9079 
245 2 24.9054 37.7015 15.3084 
246 2 26.5049 39.301 16.9079 
247 2 28.1044 37.7015 15.3084 
248 2 29.7039 39.301 16.9079 
249 2 31.3034 37.7015 15.3084 
250 2 32.9029 39.301 16.9079 
251 2 34.5025 37.7015 15.3084 
252 2 36.102 39.301 16.9079 
253 2 37.7015 37.7015 15.3084 
254 2 39.301 39.301 16.9079 
255 2 40.9005 37.7015 15.3084 
256 2 42.5 39.301 16.9079 
257 2 44.0995 37.7015 15.3084 
258 2 45.699 39.301 16.9079 
259 2 47.2985 37.7015 15.3084 
260 2 48.898 39.301 16.9079 
261 2 50.4975 37.7015 15.3084 
262 2 52.0971 39.301 16.9079 
263 2 53.6966 37.7015 15.3084 
264 2 55.2961 39.301 16.9079 
265 2 56.8956 37.7015 15.3084 
266 2 58.4951 39.301 16.9079 
267 2 60.0946 37.7015 15.3084 
268 2 61.6941 39.301 16.9079 
269 2 63.2936 37.7015 15.3084 
270 2 64.8931 39.301 16.9079 
271 2 66.4926 37.7015 15.3084 
272 2 68.0921 39.301 16.9079 
273 2 15.3084 40.9005 15.3084 
274 2 16.9079 42.5 16.9079 
275 2 18.5074 40.9005 15.3084 
276 2 20.1069 42.5 16.9079 
277 2 21.7064 40.9005 15.3084 
278 2 23.3059 42.5 16.9079 
279 2 24.9054 40.9005 15.3084 
280 2 26.5049 42.5 16.9079 
281 2 28.1044 40.9005 15.3084 
282 2 29.7039 42.5 16.9079 
283 2 31.3034 40.9005 15.3084 
284 2 32.9029 42.5 16.9079 
285 2 34.5025 40.9005 15.3084 
286 2 36.102 42.5 16.9079 
287 2 37.7015 40.9005 15.3084 
288 2 39.301 42.5 16.9079 
289 2 40.9005 40.9005 15.3084 
290 2 42.5 42.5 16.9079 
291 2 44.0995 40.9005 15.3084 
292 2 45.699 42.5 16.9079 
293 2 47.2985 40.9005 15.3084 
294 2 48.898 42.5 16.9079 
295 2 50.4975 40.9005 15.3084 
296 2 52.0971 42.5 16.9079 
297 2 53.6966 40.9005 15.3084 
298 2 55.2961 42.5 16.9079 
299 2 56.8956 40.9005 15.3084 
300 2 58.4951 42.5 16.9079 
301 2 60.0946 40.9005 15.3084 
302 2 61.6941 42.5 16.9079 
303 2 63.2936 40.9005 15.3084 
304 2 64.8931 42.5 16.9079 
305 2 66.4926 40.9005 15.3084 
306 2 68.0921 42.5 16.9079 
307 2 15.3084 44.0995 15.3084 
308 2 16.9079 45.699 16.9079 
309 2 18.5074 44.0995 15.3084 
310 2 20.1069 45.699 16.9079 
311 2 21.7064 44.0995 15.3084 
312 2 23.3059 45.699 16.9079 
313 2 24.9054 44.0995 15.3084 
314 2 26.5049 45.699 16.9079 
315 2 28.1044 44.0995 15.3084 
316 2 29.7039 45.699 16.9079 
317 2 31.3034 44.0995 15.3084 
318 2 32.9029 45.699 16.9079 
319 2 34.5025 44.0995 15.3084 
320 2 36.102 45.699 16.9079 
321 2 37.7015 44.0995 15.3084 
322 2 39.301 45.699 16.9079 
323 2 40.9005 44.0995 15.3084 
324 2 42.5 45.699 16.9079 
325 2 44.0995 44.0995 15.3084 
326 2 45.699 45.699 16.9079 
327 2 47.2985 44.0995 15.3084 
328 2 48.898 45.699 16.9079 
329 2 50.4975 44.0995 15.3084 
330 2 52.0971 45.699 16.9079 
331 2 53.6966 44.0995 15.3084 
332 2 55.2961 45.699 16.9079 
333 2 56.8956 44.0995 15.3084 
334 2 58.4951 45.699 16.9079 
335 2 60.0946 44.0995 15.3084 
336 2 61.6941 45.699 16.9079 
337 2 63.2936 44.0995 15.3084 
338 2 64.8931 45.699 16.9079 
339 2 66.4926 44.0995 15.3084 
340 2 68.0921 45.699 16.9079 
341 2 15.3084 47.2985 15.3084 
342 2 16.9079 48.898 16.9079 
343 2 18.5074 47.2985 15.3084 
344 2 20.1069 48.898 16.9079 
345 2 21.7064 47.2985 15.3084 
346 2 23.3059 48.898 16.9079 
347 2 24.9054 47.2985 15.3084 
348 2 26.5049 48.898 16.9079 
349 2 28.1044 47.2985 15.3084 
350 2 29.7039 48.898 16.9079 
351 2 31.3034 47.2985 15.3084 
352 2 32.9029 48.898 16.9079 
353 2 34.5025 47.2985 15.3084 
354 2 36.102 48.898 16.9079 
355 2 37.7015 47.2985 15.3084 
356 2 39.301 48.898 16.9079 
357 2 40.9005 47.2985 15.3084 
358 2 42.5 48.898 16.9079 
359 2 44.0995 47.2985 15.3084 
360 2 45.699 48.898 16.9079 
361 2 47.2985 47.2985 15.3084 
362 2 48.898 48.898 16.9079 
363 2 50.4975 47.2985 15.3084 
364 2 52.0971 48.898 16.9079 
365 2 53.6966 47.2985 15.3084 
366 2 55.2961 48.898 16.9079 
367 2 56.8956 47.2985 15.3084 
368 2 58.4951 48.898 16.9079 
369 2 60.0946 47.2985 15.3084 
370 2 61.6941 48.898 16.9079 
371 2 63.2936 47.2985 15.3084 
372 2 64.8931 48.898 16.9079 
373 2 66.4926 47.2985 15.3084 
374 2 68.0921 48.898 16.9079 
375 2 15.3084 50.4975 15.3084 
376 2 16.9079 52.0971 16.9079 
377 2 18.5074 50.4975 15.3084 
378 2 20.1069 52.0971 16.9079 
379 2 21.7064 50.4975 15.3084 
380 2 23.3059 52.0971 16.9079 
381 2 24.9054 50.4975 15.3084 
382 2 26.5049 52.0971 16.9079 
383 2 28.1044 50.4975 15.3084 
384 2 29.7039 52.0971 16.9079 
385 2 31.3034 50.4975 15.3084 
386 2 32.9029 52.0971 16.9079 
387 2 34.5025 50.4975 15.3084 
388 2 36.102 52.0971 16.9079 
389 2 37.7015 50.4975 15.3084 
390 2 39.301 52.0971 16.9079 
391 2 40.9005 50.4975 15.3084 
392 2 42.5 52.0971 16.9079 
393 2 44.0995 50.4975 15.3084 
394 2 45.699 52.0971 16.9079 
395 2 47.2985 50.4975 15.3084 
396 2 48.898 52.0971 16.9079 
397 2 50.4975 50.4975 15.3084 
398 2 52.0971 52.0971 16.9079 
399 2 53.6966 50.4975 15.3084 
400 2 55.2961 52.0971 16.9079 
401 2 56.8956 50.4975 15.3084 
402 2 58.4951 52.0971 16.9079 
403 2 60.0946 50.4975 15.3084 
404 2 61.6941 52.0971 16.9079 
405 2 63.2936 50.4975 15.3084 
406 2 64.8931 52.0971 16.9079 
407 2 66.4926 50.4975 15.3084 
408 2 68.0921 52.0971 16.9079 
409 2 15.3084 53.6966 15.3084 
410 2 16.9079 55.2961 16.9079 
411 2 18.5074 53.6966 15.3084 
412 2 20.1069 55.2961 16.9079 
413 2 21.7064 53.6966 15.3084 
414 2 23.3059 55.2961 16.9079 
415 2 24.9054 53.6966 15.3084 
416 2 26.5049 55.2961 16.9079 
417 2 28.1044 53.6966 15.3084 
418 2 29.7039 55.2961 16.9079 
419 2 31.3034 53.6966 15.3084 
420 2 32.9029 55.2961 16.9079 
421 2 34.5025 53.6966 15.3084 
422 2 36.102 55.2961 16.9079 
423 2 37.7015 53.6966 15.3084 
424 2 39.301 55.2961 16.9079 
425 2 40.9005 53.6966 15.3084 
426 2 42.5 55.2961 16.9079 
427 2 44.0995 53.6966 15.3084 
428 2 45.699 55.2961 16.9079 
429 2 47.2985 53.6966 15.3084 
430 2 48.898 55.2961 16.9079 
431 2 50.4975 53.6966 15.3084 
432 2 52.0971 55.2961 16.9079 
433 2 53.6966 53.6966 15.3084 
434 2 55.2961 55.2961 16.9079 
435 2 56.8956 53.6966 15.3084 
436 2 58.4951 55.2961 16.9079 
437 2 60.0946 53.6966 15.3084 
438 2 61.6941 55.2961 16.9079 
439 2 63.2936 53.6966 15.3084 
440 2 64.8931 55.2961 16.9079 
441 2 66.4926 53.6966 15.3084 
442 2 68.0921 55.2961 16.9079 
443 2 15.3084 56.8956 15.3084 
444 2 16.9079 58.4951 16.9079 
445 2 18.5074 56.8956 15.3084 
446 2 20.1069 58.4951 16.9079 
447 2 21.7064 56.8956 15.3084 
448 2 23.3059 58.4951 16.9079 
449 2 24.9054 56.8956 15.3084 
450 2 26.5049 58.4951 16.9079 
451 2 28.1044 56.8956 15.3084 
452 2 29.7039 58.4951 16.9079 
453 2 31.3034 56.8956 15.3084 
454 2 32.9029 58.4951 16.9079 
455 2 34.5025 56.8956 15.3084 
456 2 36.102 58.4951 16.9079 
457 2 37.7015 56.8956 15.3084 
458 2 39.301 58.4951 16.9079 
459 2 40.9005 56.8956 15.3084 
460 2 42.5 58.4951 16.9079 
461 2 44.0995 56.8956 15.3084 
462 2 45.699 58.4951 16.9079 
463 2 47.2985 56.8956 15.3084 
464 2 48.898 58.4951 16.9079 
465 2 50.4975 56.8956 15.3084 
466 2 52.0971 58.4951 16.9079 
467 2 53.6966 56.8956 15.3084 
468 2 55.2961 58.4951 16.9079 
469 2 56.8956 56.8956 15.3084 
470 2 58.4951 58.4951 16.9079 
471 2 60.0946 56.8956 15.3084 
472 2 61.6941 58.4951 16.9079 
473 2 63.2936 56.8956 15.3084 
474 2 64.8931 58.4951 16.9079 
475 2 66.4926 56.8956 15.3084 
476 2 68.0921 58.4951 16.9079 
477 2 15.3084 60.0946 15.3084 
478 2 16.9079 61.6941 16.9079 
479 2 18.5074 60.0946 15.3084 
480 2 20.1069 61.6941 16.9079 
481 2 21.7064 60.0946 15.3084 
482 2 23.3059 61.6941 16.9079 
483 2 24.9054 60.0946 15.3084 
484 2 26.5049 61.6941 16.9079 
485 2 28.1044 60.0946 15.3084 
486 2 29.7039 61.6941 16.9079 
487 2 31.3034 60.0946 15.3084 
488 2 32.9029 61.6941 16.9079 
489 2 34.5025 60.0946 15.3084 
490 2 36.102 61.6941 16.9079 
491 2 37.7015 60.0946 15.3084 
492 2 39.301 61.6941 16.9079 
493 2 40.9005 60.0946 15.3084 
494 2 42.5 61.6941 16.9079 
495 2 44.0995 60.0946 15.3084 
496 2 45.699 61.6941 16.9079 
497 2 47.2985 60.0946 15.3084 
498 2 48.898 61.6941 16.9079 
499 2 50.4975 60.0946 15.3084 
500 2 52.0971 61.6941 16.9079 
501 2 53.6966 60.0946 15.3084 
502 2 55.2961 61.6941 16.9079 
503 2 56.8956 60.0946 15.3084 
504 2 58.4951 61.6941 16.9079 
505 2 60.0946 60.0946 15.3084 
506 2 61.6941 61.6941 16.9079 
507 2 63.2936 60.0946 15.3084 
508 2 64.8931 61.6941 16.9079 
509 2 66.4926 60.0946 15.3084 
510 2 68.0921 61.6941 16.9079 
511 2 15.3084 63.2936 15.3084 
512 2 16.9079 64.8931 16.9079 
513 2 18.5074 63.2936 15.3084 
514 2 20.1069 64.8931 16.9079 
515 2 21.7064 63.2936 15.3084 
516 2 23.3059 64.8931 16.9079 
517 2 24.9054 63.2936 15.3084 
518 2 26.5049 64.8931 16.9079 
519 2 28.1044 63.2936 15.3084 
520 2 29.7039 64.8931 16.9079 
521 2 31.3034 63.2936 15.3084 
522 2 32.9029 64.8931 16.9079 
523 2 34.5025 63.2936 15.3084 
524 2 36.102 64.8931 16.9079 
525 2 37.7015 63.2936 15.3084 
526 2 39.301 64.8931 16.9079 
527 2 40.9005 63.2936 15.3084 
528 2 42.5 64.8931 16.9079 
529 2 44.0995 63.2936 15.3084 
530 2 45.699 64.8931 16.9079 
531 2 47.2985 63.2936 15.3084 
532 2 48.898 64.8931 16.9079 
533 2 50.4975 63.2936 15.3084 
534 2 52.0971 64.8931 16.9079 
535 2 53.6966 63.2936 15.3084 
536 2 55.2961 64.8931 16.9079 
537 2 56.8956 63.2936 15.3084 
538 2 58.4951 64.8931 16.9079 
539 2 60.0946 63.2936 15.3084 
540 2 61.6941 64.8931 16.9079 
541 2 63.2936 63.2936 15.3084 
542 2 64.8931 64.8931 16.9079 
543 2 66.4926 63.2936 15.3084 
544 2 68.0921 64.8931 16.9079 
545 2 15.3084 66.4926 15.3084 
546 2 16.9079 68.0921 16.9079 
547 2 18.5074 66.4926 15.3084 
548 2 20.1069 68.0921 16.9079 
549 2 21.7064 66.4926 15.3084 
550 2 23.3059 68.0921 16.9079 
551 2 24.9054 66.4926 15.3084 
552 2 26.5049 68.0921 16.9079 
553 2 28.1044 66.4926 15.3084 
554 2 29.7039 68.0921 16.9079 
555 2 31.3034 66.4926 15.3084 
556 2 32.9029 68.0921 16.9079 
557 2 34.5025 66.4926 15.3084 
558 2 36.102 68.0921 16.9079 
559 2 37.7015 66.4926 15.3084 
560 2 39.301 68.0921 16.9079 
561 2 40.9005 66.4926 15.3084 
562 2 42.5 68.0921 16.9079 
563 2 44.0995 66.4926 15.3084 
564 2 45.699 68.0921 16.9079 
565 2 47.2985 66.4926 15.3084 
566 2 48.898 68.0921 16.9079 
567 2 50.4975 66.4926 15.3084 
568 2 52.0971 68.0921 16.9079 
569 2 53.6966 66.4926 15.3084 
570 2 55.2961 68.0921 16.9079 
571 2 56.8956 66.4926 15.3084 
572 2 58.4951 68.0921 16.9079 
573 2 60.0946 66.4926 15.3084 
574 2 61.6941 68.0921 16.9079 
575 2 63.2936 66.4926 15.3084 
576 2 64.8931 68.0921 16.9079 
577 2 66.4926 66.4926 15.3084 
578 2 68.0921 68.0921 16.9079 
579 2 15.3084 15.3084 18.5074 
580 2 16.9079 16.9079 20.1069 
581 2 18.5074 15.3084 18.5074 
582 2 20.1069 16.9079 20.1069 
583 2 21.7064 15.3084 18.5074 
584 2 23.3059 16.9079 20.1069 
585 2 24.9054 15.3084 18.5074 
586 2 26.5049 16.9079 20.1069 
587 2 28.1044 15.3084 18.5074 
588 2 29.7039 16.9079 20.1069 
589 2 31.3034 15.3084 18.5074 
590 2 32.9029 16.9079 20.1069 
591 2 34.5025 15.3084 18.5074 
592 2 36.102 16.9079 20.1069 
593 2 37.7015 15.3084 18.5074 
594 2 39.301 16.9079 20.1069 
595 2 40.9005 15.3084 18.5074 
596 2 42.5 16.9079 20.1069 
597 2 44.0995 15.3084 18.5074 
598 2 45.699 16.9079 20.1069 
599 2 47.2985 15.3084 18.5074 
600 2 48.898 16.9079 20.1069 
601 2 50.4975 15.3084 18.5074 
602 2 52.0971 16.9079 20.1069 
603 2 53.6966 15.3084 18.5074 
604 2 55.2961 16.9079 20.1069 
605 2 56.8956 15.3084 18.5074 
606 2 58.4951 16.9079 20.1069 
607 2 60.0946 15.3084 18.5074 
608 2 61.6941 16.9079 20.1069 
609 2 63.2936 15.3084 18.5074 
610 2 64.8931 16.9079 20.1069 
611 2 66.4926 15.3084 18.5074 
612 2 68.0921 16.9079 20.1069 
613 2 15.3084 18.5074 18.5074 
614 2 16.9079 20.1069 20.1069 
615 2 18.5074 18.5074 18.5074 
616 2 20.1069 20.1069 20.1069 
617 2 21.7064 18.5074 18.5074 
618 2 23.3059 20.1069 20.1069 
619 2 24.9054 18.5074 18.5074 
620 2 26.5049 20.1069 20.1069 
621 2 28.1044 18.5074 18.5074 
622 2 29.7039 20.1069 20.1069 
623 2 31.3034 18.5074 18.5074 
624 2 32.9029 20.1069 20.1069 
625 2 34.5025 18.5074 18.5074 
626 2 36.102 20.1069 20.1069 
627 2 37.7015 18.5074 18.5074 
628 2 39.301 20.1069 20.1069 
629 2 40.9005 18.5074 18.5074 
630 2 42.5 20.1069 20.1069 
631 2 44.0995 18.5074 18.5074 
632 2 45.699 20.1069 20.1069 
633 2 47.2985 18.5074 18.5074 
634 2 48.898 20.1069 20.1069 
635 2 50.4975 18.5074 18.5074 
636 2 52.0971 20.1069 20.1069 
637 2 53.6966 18.5074 18.5074 
638 2 55.2961 20.1069 20.1069 
639 2 56.8956 18.5074 18.5074 
640 2 58.4951 20.1069 20.1069 
641 2 60.0946 18.5074 18.5074 
642 2 61.6941 20.1069 20.1069 
643 2 63.2936 18.5074 18.5074 
644 2 64.8931 20.1069 20.1069 
645 2 66.4926 18.5074 18.5074 
646 2 68.0921 20.1069 20.1069 
647 2 15.3084 21.7064 18.5074 
648 2 16.9079 23.3059 20.1069 
649 2 18.5074 21.7064 18.5074 
650 2 20.1069 23.3059 20.1069 
651 2 21.7064 21.7064 18.5074 
652 2 23.3059 23.3059 20.1069 
653 2 24.9054 21.7064 18.5074 
654 2 26.5049 23.3059 20.1069 
655 2 28.1044 21.7064 18.5074 
656 2 29.7039 23.3059 20.1069 
657 2 31.3034 21.7064 18.5074 
658 2 32.9029 23.3059 20.1069 
659 2 34.5025 21.7064 18.5074 
660 2 36.102 23.3059 20.1069 
661 2 37.7015 21.7064 18.5074 
662 2 39.301 23.3059 20.1069 
663 2 40.9005 21.7064 18.5074 
664 2 42.5 23.3059 20.1069 
665 2 44.0995 21.7064 18.5074 
666 2 45.699 23.3059 20.1069 
667 2 47.2985 21.7064 18.5074 
668 2 48.898 23.3059 20.1069 
669 2 50.4975 21.7064 18.5074 
670 2 52.0971 23.3059 20.1069 
671 2 53.6966 21.7064 18.5074 
672 2 55.2961 23.3059 20.1069 
673 2 56.8956 21.7064 18.5074 
674 2 58.4951 23.3059 20.1069 
675 2 60.0946 21.7064 18.5074 
676 2 61.6941 23.3059 20.1069 
677 2 63.2936 21.7064 18.5074 
678 2 64.8931 23.3059 20.1069 
679 2 66.4926 21.7064 18.5074 
680 2 68.0921 23.3059 20.1069 
681 2 15.3084 24.9054 18.5074 
682 2 16.9079 26.5049 20.1069 
683 2 18.5074 24.9054 18.5074 
684 2 20.1069 26.5049 20.1069 
685 2 21.7064 24.9054 18.5074 
686 2 23.3059 26.5049 20.1069 
687 2 24.9054 24.9054 18.5074 
688 2 26.5049 26.5049 20.1069 
689 2 28.1044 24.9054 18.5074 
690 2 29.7039 26.5049 20.1069 
691 2 31.3034 24.9054 18.5074 
692 2 32.9029 26.5049 20.1069 
693 2 34.5025 24.9054 18.5074 
694 2 36.102 26.5049 20.1069 
695 2 37.7015 24.9054 18.5074 
696 2 39.301 26.5049 20.1069 
697 2 40.9005 24.9054 18.5074 
698 2 42.5 26.5049 20.1069 
699 2 44.0995 24.9054 18.5074 
700 2 45.699 26.5049 20.1069 
701 2 47.2985 24.9054 18.5074 
702 2 48.898 26.5049 20.1069 
703 2 50.4975 24.9054 18.5074 
704 2 52.0971 26.5049 20.1069 
705 2 53.6966 24.9054 18.5074 
706 2 55.2961 26.5049 20.1069 
707 2 56.8956 24.9054 18.5074 
708 2 58.4951 26.5049 20.1069 
709 2 60.0946 24.9054 18.5074 
710 2 61.6941 26.5049 20.1069 
711 2 63.2936 24.9054 18.5074 
712 2 64.8931 26.5049 20.1069 
713 2 66.4926 24.9054 18.5074 
714 2 68.0921 26.5049 20.1069 
715 2 15.3084 28.1044 18.5074 
716 2 16.9079 29.7039 20.1069 
717 2 18.5074 28.1044 18.5074 
718 2 20.1069 29.7039 20.1069 
719 2 21.7064 28.1044 18.5074 
720 2 23.3059 29.7039 20.1069 
721 2 24.9054 28.1044 18.5074 
722 2 26.5049 29.7039 20.1069 
723 2 28.1044 28.1044 18.5074 
724 2 29.7039 29.7039 20.1069 
725 2 31.3034 28.1044 18.5074 
726 2 32.9029 29.7039 20.1069 
727 2 34.5025 28.1044 18.5074 
728 2 36.102 29.7039 20.1069 
729 2 37.7015 28.1044 18.5074 
730 2 39.301 29.7039 20.1069 
731 2 40.9005 28.1044 18.5074 
732 2 42.5 29.7039 20.1069 
733 2 44.0995 28.1044 18.5074 
734 2 45.699 29.7039 20.1069 
735 2 47.2985 28.1044 18.5074 
736 2 48.898 29.7039 20.1069 
737 2 50.4975 28.1044 18.5074 
738 2 52.0971 29.7039 20.1069 
739 2 53.6966 28.1044 18.5074 
740 2 55.2961 29.7039 20.1069 
741 2 56.8956 28.1044 18.5074 
742 2 58.4951 29.7039 20.1069 
743 2 60.0946 28.1044 18.5074 
744 2 61.6941 29.7039 20.1069 
745 2 63.2936 28.1044 18.5074 
746 2 64.8931 29.7039 20.1069 
747 2 66.4926 28.1044 18.5074 
748 2 68.0921 29.7039 20.1069 
749 2 15.3084 31.3034 18.5074 
750 2 16.9079 32.9029 20.1069 
751 2 18.5074 31.3034 18.5074 
752 2 20.1069 32.9029 20.1069 
753 2 21.7064 31.3034 18.5074 
754 2 23.3059 32.9029 20.1069 
755 2 24.9054 31.3034 18.5074 
756 2 26.5049 32.9029 20.1069 
757 2 28.1044 31.3034 18.5074 
758 2 29.7039 32.9029 20.1069 
759 2 31.3034 31.3034 18.5074 
760 2 32.9029 32.9029 20.1069 
761 2 34.5025 31.3034 18.5074 
762 2 36.102 32.9029 20.1069 
763 2 37.7015 31.3034 18.5074 
764 2 39.301 32.9029 20.1069 
765 2 40.9005 31.3034 18.5074 
766 2 42.5 32.9029 20.1069 
767 2 44.0995 31.3034 18.5074 
768 2 45.699 32.9029 20.1069 
769 2 47.2985 31.3034 18.5074 
770 2 48.898 32.9029 20.1069 
771 2 50.4975 31.3034 18.5074 
772 2 52.0971 32.9029 20.1069 
773 2 53.6966 31.3034 18.5074 
774 2 55.2961 32.9029 20.1069 
775 2 56.8956 31.3034 18.5074 
776 2 58.4951 32.9029 20.1069 
777 2 60.0946 31.3034 18.5074 
778 2 61.6941 32.9029 20.1069 
779 2 63.2936 31.3034 18.5074 
780 2 64.8931 32.9029 20.1069 
781 2 66.4926 31.3034 18.5074 
782 2 68.0921 32.9029 20.1069 
783 2 15.3084 34.5025 18.5074 
784 2 16.9079 36.102 20.1069 
785 2 18.5074 34.5025 18.5074 
786 2 20.1069 36.102 20.1069 
787 2 21.7064 34.5025 18.5074 
788 2 23.3059 36.102 20.1069 
789 2 24.9054 34.5025 18.5074 
790 2 26.5049 36.102 20.1069 
791 2 28.1044 34.5025 18.5074 
792 2 29.7039 36.102 20.1069 
793 2 31.3034 34.5025 18.5074 
794 2 32.9029 36.102 20.1069 
795 2 34.5025 34.5025 18.5074 
796 2 36.102 36.102 20.1069 
797 2 37.7015 34.5025 18.5074 
798 2 39.301 36.102 20.1069 
799 2 40.9005 34.5025 18.5074 
800 2 42.5 36.102 20.1069 
801 2 44.0995 34.5025 18.5074 
802 2 45.699 36.102 20.1069 
803 2 47.2985 34.5025 18.5074 
804 2 48.898 36.102 20.1069 
805 2 50.4975 34.5025 18.5074 
806 2 52.0971 36.102 20.1069 
807 2 53.6966 34.5025 18.5074 
808 2 55.2961 36.102 20.1069 
809 2 56.8956 34.5025 18.5074 
810 2 58.4951 36.102 20.1069 
811 2 60.0946 34.5025 18.5074 
812 2 61.6941 36.102 20.1069 
813 2 63.2936 34.5025 18.5074 
814 2 64.8931 36.102 20.1069 
815 2 66.4926 34.5025 18.5074 
816 2 68.0921 36.102 20.1069 
817 2 15.3084 37.7015 18.5074 
818 2 16.9079 39.301 20.1069 
819 2 18.5074 37.7015 18.5074 
820 2 20.1069 39.301 20.1069 
821 2 21.7064 37.7015 18.5074 
822 2 23.3059 39.301 20.1069 
823 2 24.9054 37.7015 18.5074 
824 2 26.5049 39.301 20.1069 
825 2 28.1044 37.7015 18.5074 
826 2 29.7039 39.301 20.1069 
827 2 31.3034 37.7015 18.5074 
828 2 32.9029 39.301 20.1069 
829 2 34.5025 37.7015 18.5074 
830 2 36.102 39.301 20.1069 
831 2 37.7015 37.7015 18.5074 
832 2 39.301 39.301 20.1069 
833 2 40.9005 37.7015 18.5074 
834 2 42.5 39.301 20.1069 
835 2 44.0995 37.7015 18.5074 
836 2 45.699 39.301 20.1069 
837 2 47.2985 37.7015 18.5074 
838 2 48.898 39.301 20.1069 
839 2 50.4975 37.7015 18.5074 
840 2 52.0971 39.301 20.1069 
841 2 53.6966 37.7015 18.5074 
842 2 55.2961 39.301 20.1069 
843 2 56.8956 37.7015 18.5074 
844 2 58.4951 39.301 20.1069 
845 2 60.0946 37.7015 18.5074 
846 2 61.6941 39.301 20.1069 
847 2 63.2936 37.7015 18.5074 
848 2 64.8931 39.301 20.1069 
849 2 66.4926 37.7015 18.5074 
850 2 68.0921 39.301 20.1069 
851 2 15.3084 40.9005 18.5074 
852 2 16.9079 42.5 20.1069 
853 2 18.5074 40.9005 18.5074 
854 2 20.1069 42.5 20.1069 
855 2 21.7064 40.9005 18.5074 
856 2 23.3059 42.5 20.1069 
857 2 24.9054 40.9005 18.5074 
858 2 26.5049 42.5 20.1069 
859 2 28.1044 40.9005 18.5074 
860 2 29.7039 42.5 20.1069 
861 2 31.3034 40.9005 18.5074 
862 2 32.9029 42.5 20.1069 
863 2 34.5025 40.9005 18.5074 
864 2 36.102 42.5 20.1069 
865 2 37.7015 40.9005 18.5074 
866 2 39.301 42.5 20.1069 
867 2 40.9005 40.9005 18.5074 
868 2 42.5 42.5 20.1069 
869 2 44.0995 40.9005 18.5074 
870 2 45.699 42.5 20.1069 
871 2 47.2985 40.9005 18.5074 
872 2 48.898 42.5 20.1069 
873 2 50.4975 40.9005 18.5074 
874 2 52.0971 42.5 20.1069 
875 2 53.6966 40.9005 18.5074 
876 2 55.2961 42.5 20.1069 
877 2 56.8956 40.9005 18.5074 
878 2 58.4951 42.5 20.1069 
879 2 60.0946 40.9005 18.5074 
880 2 61.6941 42.5 20.1069 
881 2 63.2936 40.9005 18.5074 
882 2 64.8931 42.5 20.1069 
883 2 66.4926 40.9005 18.5074 
884 2 68.0921 42.5 20.1069 
885 2 15.3084 44.0995 18.5074 
886 2 16.9079 45.699 20.1069 
887 2 18.5074 44.0995 18.5074 
888 2 20.1069 45.699 20.1069 
889 2 21.7064 44.0995 18.5074 
890 2 23.3059 45.699 20.1069 
891 2 24.9054 44.0995 18.5074 
892 2 26.5049 45.699 20.1069 
893 2 28.1044 44.0995 18.5074 
894 2 29.7039 45.699 20.1069 
895 2 31.3034 44.0995 18.5074 
896 2 32.9029 45.699 20.1069 
897 2 34.5025 44.0995 18.5074 
898 2 36.102 45.699 20.1069 
899 2 37.7015 44.0995 18.5074 
900 2 39.301 45.699 20.1069 
901 2 40.9005 44.0995 18.5074 
902 2 42.5 45.699 20.1069 
903 2 44.0995 44.0995 18.5074 
904 2 45.699 45.699 20.1069 
905 2 47.2985 44.0995 18.5074 
906 2 48.898 45.699 20.1069 
907 2 50.4975 44.0995 18.5074 
908 2 52.0971 45.699 20.1069 
909 2 53.6966 44.0995 18.5074 
910 2 55.2961 45.699 20.1069 
911 2 56.8956 44.0995 18.5074 
912 2 58.4951 45.699 20.1069 
913 2 60.0946 44.0995 18.5074 
914 2 61.6941 45.699 20.1069 
915 2 63.2936 44.0995 18.5074 
916 2 64.8931 45.699 20.1069 
917 2 66.4926 44.0995 18.5074 
918 2 68.0921 45.699 20.1069 
919 2 15.3084 47.2985 18.5074 
920 2 16.9079 48.898 20.1069 
921 2 18.5074 47.2985 18.5074 
922 2 20.1069 48.898 20.1069 
923 2 21.7064 47.2985 18.5074 
924 2 23.3059 48.898 20.1069 
925 2 24.9054 47.2985 18.5074 
926 2 26.5049 48.898 20.1069 
927 2 28.1044 47.2985 18.5074 
928 2 29.7039 48.898 20.1069 
929 2 31.3034 47.2985 18.5074 
930 2 32.9029 48.898 20.1069 
931 2 34.5025 47.2985 18.5074 
932 2 36.102 48.898 20.1069 
933 2 37.7015 47.2985 18.5074 
934 2 39.301 48.898 20.1069 
935 2 40.9005 47.2985 18.5074 
936 2 42.5 48.898 20.1069 
937 2 44.0995 47.2985 18.5074 
938 2 45.699 48.898 20.1069 
939 2 47.2985 47.2985 18.5074 
940 2 48.898 48.898 20.1069 
941 2 50.4975 47.2985 18.5074 
942 2 52.0971 48.898 20.1069 
943 2 53.6966 47.2985 18.5074 
944 2 55.2961 48.898 20.1069 
945 2 56.8956 47.2985 18.5074 
946 2 58.4951 48.898 20.1069 
947 2 60.0946 47.2985 18.5074 
948 2 61.6941 48.898 20.1069 
949 2 63.2936 47.2985 18.5074 
950 2 64.8931 48.898 20.1069 
951 2 66.4926 47.2985 18.5074 
952 2 68.0921 48.898 20.1069 
953 2 15.3084 50.4975 18.5074 
954 2 16.9079 52.0971 20.1069 
955 2 18.5074 50.4975 18.5074 
956 2 20.1069 52.0971 20.1069 
957 2 21.7064 50.4975 18.5074 
958 2 23.3059 52.0971 20.1069 
959 2 24.9054 50.4975 18.5074 
960 2 26.5049 52.0971 20.1069 
961 2 28.1044 50.4975 18.5074 
962 2 29.7039 52.0971 20.1069 
963 2 31.3034 50.4975 18.5074 
964 2 32.9029 52.0971 20.1069 
965 2 34.5025 50.4975 18.5074 
966 2 36.102 52.0971 20.1069 
967 2 37.7015 50.4975 18.5074 
968 2 39.301 52.0971 20.1069 
969 2 40.9005 50.4975 18.5074 
970 2 42.5 52.0971 20.1069 
971 2 44.0995 50.4975 18.5074 
972 2 45.699 52.0971 20.1069 
973 2 47.2985 50.4975 18.5074 
974 2 48.898 52.0971 20.1069 
975 2 50.4975 50.4975 18.5074 
976 2 52.0971 52.0971 20.1069 
977 2 53.6966 50.4975 18.5074 