ITEM: TIMESTEP
40
ITEM: NUMBER OF ATOMS
19652
ITEM: BOX BOUNDS pp pp pp
8.0652750744423791e+00 7.6934724925557418e+01
8.0652750744423791e+00 7.6934724925557418e+01
8.0652750744423791e+00 7.6934724925557418e+01
ITEM: ATOMS id type xu yu zu 
1 2 8.06528 8.06528 8.06528 
2 2 10.0908 10.0908 8.06528 
3 2 10.0908 8.06528 10.0908 
4 2 8.06528 10.0908 10.0908 
5 2 12.1164 8.06528 8.06528 
6 2 14.142 10.0908 8.06528 
7 2 14.142 8.06528 10.0908 
8 2 12.1164 10.0908 10.0908 
9 2 16.1676 8.06528 8.06528 
10 2 18.1931 10.0908 8.06528 
11 2 18.1931 8.06528 10.0908 
12 2 16.1676 10.0908 10.0908 
13 2 20.2187 8.06528 8.06528 
14 2 22.2443 10.0908 8.06528 
15 2 22.2443 8.06528 10.0908 
16 2 20.2187 10.0908 10.0908 
17 2 24.2699 8.06528 8.06528 
18 2 26.2954 10.0908 8.06528 
19 2 26.2954 8.06528 10.0908 
20 2 24.2699 10.0908 10.0908 
21 2 28.321 8.06528 8.06528 
22 2 30.3466 10.0908 8.06528 
23 2 30.3466 8.06528 10.0908 
24 2 28.321 10.0908 10.0908 
25 2 32.3721 8.06528 8.06528 
26 2 34.3977 10.0908 8.06528 
27 2 34.3977 8.06528 10.0908 
28 2 32.3721 10.0908 10.0908 
29 2 36.4233 8.06528 8.06528 
30 2 38.4489 10.0908 8.06528 
31 2 38.4489 8.06528 10.0908 
32 2 36.4233 10.0908 10.0908 
33 2 40.4744 8.06528 8.06528 
34 2 42.5 10.0908 8.06528 
35 2 42.5 8.06528 10.0908 
36 2 40.4744 10.0908 10.0908 
37 2 44.5256 8.06528 8.06528 
38 2 46.5511 10.0908 8.06528 
39 2 46.5511 8.06528 10.0908 
40 2 44.5256 10.0908 10.0908 
41 2 48.5767 8.06528 8.06528 
42 2 50.6023 10.0908 8.06528 
43 2 50.6023 8.06528 10.0908 
44 2 48.5767 10.0908 10.0908 
45 2 52.6279 8.06528 8.06528 
46 2 54.6534 10.0908 8.06528 
47 2 54.6534 8.06528 10.0908 
48 2 52.6279 10.0908 10.0908 
49 2 56.679 8.06528 8.06528 
50 2 58.7046 10.0908 8.06528 
51 2 58.7046 8.06528 10.0908 
52 2 56.679 10.0908 10.0908 
53 2 60.7301 8.06528 8.06528 
54 2 62.7557 10.0908 8.06528 
55 2 62.7557 8.06528 10.0908 
56 2 60.7301 10.0908 10.0908 
57 2 64.7813 8.06528 8.06528 
58 2 66.8069 10.0908 8.06528 
59 2 66.8069 8.06528 10.0908 
60 2 64.7813 10.0908 10.0908 
61 2 68.8324 8.06528 8.06528 
62 2 70.858 10.0908 8.06528 
63 2 70.858 8.06528 10.0908 
64 2 68.8324 10.0908 10.0908 
65 2 72.8836 8.06528 8.06528 
66 2 74.9092 10.0908 8.06528 
67 2 74.9092 8.06528 10.0908 
68 2 72.8836 10.0908 10.0908 
69 2 8.06528 12.1164 8.06528 
70 2 10.0908 14.142 8.06528 
71 2 10.0908 12.1164 10.0908 
72 2 8.06528 14.142 10.0908 
73 2 12.1164 12.1164 8.06528 
74 2 14.142 14.142 8.06528 
75 2 14.142 12.1164 10.0908 
76 2 12.1164 14.142 10.0908 
77 2 16.1676 12.1164 8.06528 
78 2 18.1931 14.142 8.06528 
79 2 18.1931 12.1164 10.0908 
80 2 16.1676 14.142 10.0908 
81 2 20.2187 12.1164 8.06528 
82 2 22.2443 14.142 8.06528 
83 2 22.2443 12.1164 10.0908 
84 2 20.2187 14.142 10.0908 
85 2 24.2699 12.1164 8.06528 
86 2 26.2954 14.142 8.06528 
87 2 26.2954 12.1164 10.0908 
88 2 24.2699 14.142 10.0908 
89 2 28.321 12.1164 8.06528 
90 2 30.3466 14.142 8.06528 
91 2 30.3466 12.1164 10.0908 
92 2 28.321 14.142 10.0908 
93 2 32.3721 12.1164 8.06528 
94 2 34.3977 14.142 8.06528 
95 2 34.3977 12.1164 10.0908 
96 2 32.3721 14.142 10.0908 
97 2 36.4233 12.1164 8.06528 
98 2 38.4489 14.142 8.06528 
99 2 38.4489 12.1164 10.0908 
100 2 36.4233 14.142 10.0908 
101 2 40.4744 12.1164 8.06528 
102 2 42.5 14.142 8.06528 
103 2 42.5 12.1164 10.0908 
104 2 40.4744 14.142 10.0908 
105 2 44.5256 12.1164 8.06528 
106 2 46.5511 14.142 8.06528 
107 2 46.5511 12.1164 10.0908 
108 2 44.5256 14.142 10.0908 
109 2 48.5767 12.1164 8.06528 
110 2 50.6023 14.142 8.06528 
111 2 50.6023 12.1164 10.0908 
112 2 48.5767 14.142 10.0908 
113 2 52.6279 12.1164 8.06528 
114 2 54.6534 14.142 8.06528 
115 2 54.6534 12.1164 10.0908 
116 2 52.6279 14.142 10.0908 
117 2 56.679 12.1164 8.06528 
118 2 58.7046 14.142 8.06528 
119 2 58.7046 12.1164 10.0908 
120 2 56.679 14.142 10.0908 
121 2 60.7301 12.1164 8.06528 
122 2 62.7557 14.142 8.06528 
123 2 62.7557 12.1164 10.0908 
124 2 60.7301 14.142 10.0908 
125 2 64.7813 12.1164 8.06528 
126 2 66.8069 14.142 8.06528 
127 2 66.8069 12.1164 10.0908 
128 2 64.7813 14.142 10.0908 
129 2 68.8324 12.1164 8.06528 
130 2 70.858 14.142 8.06528 
131 2 70.858 12.1164 10.0908 
132 2 68.8324 14.142 10.0908 
133 2 72.8836 12.1164 8.06528 
134 2 74.9092 14.142 8.06528 
135 2 74.9092 12.1164 10.0908 
136 2 72.8836 14.142 10.0908 
137 2 8.06528 16.1676 8.06528 
138 2 10.0908 18.1931 8.06528 
139 2 10.0908 16.1676 10.0908 
140 2 8.06528 18.1931 10.0908 
141 2 12.1164 16.1676 8.06528 
142 2 14.142 18.1931 8.06528 
143 2 14.142 16.1676 10.0908 
144 2 12.1164 18.1931 10.0908 
145 2 16.1676 16.1676 8.06528 
146 2 18.1931 18.1931 8.06528 
147 2 18.1931 16.1676 10.0908 
148 2 16.1676 18.1931 10.0908 
149 2 20.2187 16.1676 8.06528 
150 2 22.2443 18.1931 8.06528 
151 2 22.2443 16.1676 10.0908 
152 2 20.2187 18.1931 10.0908 
153 2 24.2699 16.1676 8.06528 
154 2 26.2954 18.1931 8.06528 
155 2 26.2954 16.1676 10.0908 
156 2 24.2699 18.1931 10.0908 
157 2 28.321 16.1676 8.06528 
158 2 30.3466 18.1931 8.06528 
159 2 30.3466 16.1676 10.0908 
160 2 28.321 18.1931 10.0908 
161 2 32.3721 16.1676 8.06528 
162 2 34.3977 18.1931 8.06528 
163 2 34.3977 16.1676 10.0908 
164 2 32.3721 18.1931 10.0908 
165 2 36.4233 16.1676 8.06528 
166 2 38.4489 18.1931 8.06528 
167 2 38.4489 16.1676 10.0908 
168 2 36.4233 18.1931 10.0908 
169 2 40.4744 16.1676 8.06528 
170 2 42.5 18.1931 8.06528 
171 2 42.5 16.1676 10.0908 
172 2 40.4744 18.1931 10.0908 
173 2 44.5256 16.1676 8.06528 
174 2 46.5511 18.1931 8.06528 
175 2 46.5511 16.1676 10.0908 
176 2 44.5256 18.1931 10.0908 
177 2 48.5767 16.1676 8.06528 
178 2 50.6023 18.1931 8.06528 
179 2 50.6023 16.1676 10.0908 
180 2 48.5767 18.1931 10.0908 
181 2 52.6279 16.1676 8.06528 
182 2 54.6534 18.1931 8.06528 
183 2 54.6534 16.1676 10.0908 
184 2 52.6279 18.1931 10.0908 
185 2 56.679 16.1676 8.06528 
186 2 58.7046 18.1931 8.06528 
187 2 58.7046 16.1676 10.0908 
188 2 56.679 18.1931 10.0908 
189 2 60.7301 16.1676 8.06528 
190 2 62.7557 18.1931 8.06528 
191 2 62.7557 16.1676 10.0908 
192 2 60.7301 18.1931 10.0908 
193 2 64.7813 16.1676 8.06528 
194 2 66.8069 18.1931 8.06528 
195 2 66.8069 16.1676 10.0908 
196 2 64.7813 18.1931 10.0908 
197 2 68.8324 16.1676 8.06528 
198 2 70.858 18.1931 8.06528 
199 2 70.858 16.1676 10.0908 
200 2 68.8324 18.1931 10.0908 
201 2 72.8836 16.1676 8.06528 
202 2 74.9092 18.1931 8.06528 
203 2 74.9092 16.1676 10.0908 
204 2 72.8836 18.1931 10.0908 
205 2 8.06528 20.2187 8.06528 
206 2 10.0908 22.2443 8.06528 
207 2 10.0908 20.2187 10.0908 
208 2 8.06528 22.2443 10.0908 
209 2 12.1164 20.2187 8.06528 
210 2 14.142 22.2443 8.06528 
211 2 14.142 20.2187 10.0908 
212 2 12.1164 22.2443 10.0908 
213 2 16.1676 20.2187 8.06528 
214 2 18.1931 22.2443 8.06528 
215 2 18.1931 20.2187 10.0908 
216 2 16.1676 22.2443 10.0908 
217 2 20.2187 20.2187 8.06528 
218 2 22.2443 22.2443 8.06528 
219 2 22.2443 20.2187 10.0908 
220 2 20.2187 22.2443 10.0908 
221 2 24.2699 20.2187 8.06528 
222 2 26.2954 22.2443 8.06528 
223 2 26.2954 20.2187 10.0908 
224 2 24.2699 22.2443 10.0908 
225 2 28.321 20.2187 8.06528 
226 2 30.3466 22.2443 8.06528 
227 2 30.3466 20.2187 10.0908 
228 2 28.321 22.2443 10.0908 
229 2 32.3721 20.2187 8.06528 
230 2 34.3977 22.2443 8.06528 
231 2 34.3977 20.2187 10.0908 
232 2 32.3721 22.2443 10.0908 
233 2 36.4233 20.2187 8.06528 
234 2 38.4489 22.2443 8.06528 
235 2 38.4489 20.2187 10.0908 
236 2 36.4233 22.2443 10.0908 
237 2 40.4744 20.2187 8.06528 
238 2 42.5 22.2443 8.06528 
239 2 42.5 20.2187 10.0908 
240 2 40.4744 22.2443 10.0908 
241 2 44.5256 20.2187 8.06528 
242 2 46.5511 22.2443 8.06528 
243 2 46.5511 20.2187 10.0908 
244 2 44.5256 22.2443 10.0908 
245 2 48.5767 20.2187 8.06528 
246 2 50.6023 22.2443 8.06528 
247 2 50.6023 20.2187 10.0908 
248 2 48.5767 22.2443 10.0908 
249 2 52.6279 20.2187 8.06528 
250 2 54.6534 22.2443 8.06528 
251 2 54.6534 20.2187 10.0908 
252 2 52.6279 22.2443 10.0908 
253 2 56.679 20.2187 8.06528 
254 2 58.7046 22.2443 8.06528 
255 2 58.7046 20.2187 10.0908 
256 2 56.679 22.2443 10.0908 
257 2 60.7301 20.2187 8.06528 
258 2 62.7557 22.2443 8.06528 
259 2 62.7557 20.2187 10.0908 
260 2 60.7301 22.2443 10.0908 
261 2 64.7813 20.2187 8.06528 
262 2 66.8069 22.2443 8.06528 
263 2 66.8069 20.2187 10.0908 
264 2 64.7813 22.2443 10.0908 
265 2 68.8324 20.2187 8.06528 
266 2 70.858 22.2443 8.06528 
267 2 70.858 20.2187 10.0908 
268 2 68.8324 22.2443 10.0908 
269 2 72.8836 20.2187 8.06528 
270 2 74.9092 22.2443 8.06528 
271 2 74.9092 20.2187 10.0908 
272 2 72.8836 22.2443 10.0908 
273 2 8.06528 24.2699 8.06528 
274 2 10.0908 26.2954 8.06528 
275 2 10.0908 24.2699 10.0908 
276 2 8.06528 26.2954 10.0908 
277 2 12.1164 24.2699 8.06528 
278 2 14.142 26.2954 8.06528 
279 2 14.142 24.2699 10.0908 
280 2 12.1164 26.2954 10.0908 
281 2 16.1676 24.2699 8.06528 
282 2 18.1931 26.2954 8.06528 
283 2 18.1931 24.2699 10.0908 
284 2 16.1676 26.2954 10.0908 
285 2 20.2187 24.2699 8.06528 
286 2 22.2443 26.2954 8.06528 
287 2 22.2443 24.2699 10.0908 
288 2 20.2187 26.2954 10.0908 
289 2 24.2699 24.2699 8.06528 
290 2 26.2954 26.2954 8.06528 
291 2 26.2954 24.2699 10.0908 
292 2 24.2699 26.2954 10.0908 
293 2 28.321 24.2699 8.06528 
294 2 30.3466 26.2954 8.06528 
295 2 30.3466 24.2699 10.0908 
296 2 28.321 26.2954 10.0908 
297 2 32.3721 24.2699 8.06528 
298 2 34.3977 26.2954 8.06528 
299 2 34.3977 24.2699 10.0908 
300 2 32.3721 26.2954 10.0908 
301 2 36.4233 24.2699 8.06528 
302 2 38.4489 26.2954 8.06528 
303 2 38.4489 24.2699 10.0908 
304 2 36.4233 26.2954 10.0908 
305 2 40.4744 24.2699 8.06528 
306 2 42.5 26.2954 8.06528 
307 2 42.5 24.2699 10.0908 
308 2 40.4744 26.2954 10.0908 
309 2 44.5256 24.2699 8.06528 
310 2 46.5511 26.2954 8.06528 
311 2 46.5511 24.2699 10.0908 
312 2 44.5256 26.2954 10.0908 
313 2 48.5767 24.2699 8.06528 
314 2 50.6023 26.2954 8.06528 
315 2 50.6023 24.2699 10.0908 
316 2 48.5767 26.2954 10.0908 
317 2 52.6279 24.2699 8.06528 
318 2 54.6534 26.2954 8.06528 
319 2 54.6534 24.2699 10.0908 
320 2 52.6279 26.2954 10.0908 
321 2 56.679 24.2699 8.06528 
322 2 58.7046 26.2954 8.06528 
323 2 58.7046 24.2699 10.0908 
324 2 56.679 26.2954 10.0908 
325 2 60.7301 24.2699 8.06528 
326 2 62.7557 26.2954 8.06528 
327 2 62.7557 24.2699 10.0908 
328 2 60.7301 26.2954 10.0908 
329 2 64.7813 24.2699 8.06528 
330 2 66.8069 26.2954 8.06528 
331 2 66.8069 24.2699 10.0908 
332 2 64.7813 26.2954 10.0908 
333 2 68.8324 24.2699 8.06528 
334 2 70.858 26.2954 8.06528 
335 2 70.858 24.2699 10.0908 
336 2 68.8324 26.2954 10.0908 
337 2 72.8836 24.2699 8.06528 
338 2 74.9092 26.2954 8.06528 
339 2 74.9092 24.2699 10.0908 
340 2 72.8836 26.2954 10.0908 
341 2 8.06528 28.321 8.06528 
342 2 10.0908 30.3466 8.06528 
343 2 10.0908 28.321 10.0908 
344 2 8.06528 30.3466 10.0908 
345 2 12.1164 28.321 8.06528 
346 2 14.142 30.3466 8.06528 
347 2 14.142 28.321 10.0908 
348 2 12.1164 30.3466 10.0908 
349 2 16.1676 28.321 8.06528 
350 2 18.1931 30.3466 8.06528 
351 2 18.1931 28.321 10.0908 
352 2 16.1676 30.3466 10.0908 
353 2 20.2187 28.321 8.06528 
354 2 22.2443 30.3466 8.06528 
355 2 22.2443 28.321 10.0908 
356 2 20.2187 30.3466 10.0908 
357 2 24.2699 28.321 8.06528 
358 2 26.2954 30.3466 8.06528 
359 2 26.2954 28.321 10.0908 
360 2 24.2699 30.3466 10.0908 
361 2 28.321 28.321 8.06528 
362 2 30.3466 30.3466 8.06528 
363 2 30.3466 28.321 10.0908 
364 2 28.321 30.3466 10.0908 
365 2 32.3721 28.321 8.06528 
366 2 34.3977 30.3466 8.06528 
367 2 34.3977 28.321 10.0908 
368 2 32.3721 30.3466 10.0908 
369 2 36.4233 28.321 8.06528 
370 2 38.4489 30.3466 8.06528 
371 2 38.4489 28.321 10.0908 
372 2 36.4233 30.3466 10.0908 
373 2 40.4744 28.321 8.06528 
374 2 42.5 30.3466 8.06528 
375 2 42.5 28.321 10.0908 
376 2 40.4744 30.3466 10.0908 
377 2 44.5256 28.321 8.06528 
378 2 46.5511 30.3466 8.06528 
379 2 46.5511 28.321 10.0908 
380 2 44.5256 30.3466 10.0908 
381 2 48.5767 28.321 8.06528 
382 2 50.6023 30.3466 8.06528 
383 2 50.6023 28.321 10.0908 
384 2 48.5767 30.3466 10.0908 
385 2 52.6279 28.321 8.06528 
386 2 54.6534 30.3466 8.06528 
387 2 54.6534 28.321 10.0908 
388 2 52.6279 30.3466 10.0908 
389 2 56.679 28.321 8.06528 
390 2 58.7046 30.3466 8.06528 
391 2 58.7046 28.321 10.0908 
392 2 56.679 30.3466 10.0908 
393 2 60.7301 28.321 8.06528 
394 2 62.7557 30.3466 8.06528 
395 2 62.7557 28.321 10.0908 
396 2 60.7301 30.3466 10.0908 
397 2 64.7813 28.321 8.06528 
398 2 66.8069 30.3466 8.06528 
399 2 66.8069 28.321 10.0908 
400 2 64.7813 30.3466 10.0908 
401 2 68.8324 28.321 8.06528 
402 2 70.858 30.3466 8.06528 
403 2 70.858 28.321 10.0908 
404 2 68.8324 30.3466 10.0908 
405 2 72.8836 28.321 8.06528 
406 2 74.9092 30.3466 8.06528 
407 2 74.9092 28.321 10.0908 
408 2 72.8836 30.3466 10.0908 
409 2 8.06528 32.3721 8.06528 
410 2 10.0908 34.3977 8.06528 
411 2 10.0908 32.3721 10.0908 
412 2 8.06528 34.3977 10.0908 
413 2 12.1164 32.3721 8.06528 
414 2 14.142 34.3977 8.06528 
415 2 14.142 32.3721 10.0908 
416 2 12.1164 34.3977 10.0908 
417 2 16.1676 32.3721 8.06528 
418 2 18.1931 34.3977 8.06528 
419 2 18.1931 32.3721 10.0908 
420 2 16.1676 34.3977 10.0908 
421 2 20.2187 32.3721 8.06528 
422 2 22.2443 34.3977 8.06528 
423 2 22.2443 32.3721 10.0908 
424 2 20.2187 34.3977 10.0908 
425 2 24.2699 32.3721 8.06528 
426 2 26.2954 34.3977 8.06528 
427 2 26.2954 32.3721 10.0908 
428 2 24.2699 34.3977 10.0908 
429 2 28.321 32.3721 8.06528 
430 2 30.3466 34.3977 8.06528 
431 2 30.3466 32.3721 10.0908 
432 2 28.321 34.3977 10.0908 
433 2 32.3721 32.3721 8.06528 
434 2 34.3977 34.3977 8.06528 
435 2 34.3977 32.3721 10.0908 
436 2 32.3721 34.3977 10.0908 
437 2 36.4233 32.3721 8.06528 
438 2 38.4489 34.3977 8.06528 
439 2 38.4489 32.3721 10.0908 
440 2 36.4233 34.3977 10.0908 
441 2 40.4744 32.3721 8.06528 
442 2 42.5 34.3977 8.06528 
443 2 42.5 32.3721 10.0908 
444 2 40.4744 34.3977 10.0908 
445 2 44.5256 32.3721 8.06528 
446 2 46.5511 34.3977 8.06528 
447 2 46.5511 32.3721 10.0908 
448 2 44.5256 34.3977 10.0908 
449 2 48.5767 32.3721 8.06528 
450 2 50.6023 34.3977 8.06528 
451 2 50.6023 32.3721 10.0908 
452 2 48.5767 34.3977 10.0908 
453 2 52.6279 32.3721 8.06528 
454 2 54.6534 34.3977 8.06528 
455 2 54.6534 32.3721 10.0908 
456 2 52.6279 34.3977 10.0908 
457 2 56.679 32.3721 8.06528 
458 2 58.7046 34.3977 8.06528 
459 2 58.7046 32.3721 10.0908 
460 2 56.679 34.3977 10.0908 
461 2 60.7301 32.3721 8.06528 
462 2 62.7557 34.3977 8.06528 
463 2 62.7557 32.3721 10.0908 
464 2 60.7301 34.3977 10.0908 
465 2 64.7813 32.3721 8.06528 
466 2 66.8069 34.3977 8.06528 
467 2 66.8069 32.3721 10.0908 
468 2 64.7813 34.3977 10.0908 
469 2 68.8324 32.3721 8.06528 
470 2 70.858 34.3977 8.06528 
471 2 70.858 32.3721 10.0908 
472 2 68.8324 34.3977 10.0908 
473 2 72.8836 32.3721 8.06528 
474 2 74.9092 34.3977 8.06528 
475 2 74.9092 32.3721 10.0908 
476 2 72.8836 34.3977 10.0908 
477 2 8.06528 36.4233 8.06528 
478 2 10.0908 38.4489 8.06528 
479 2 10.0908 36.4233 10.0908 
480 2 8.06528 38.4489 10.0908 
481 2 12.1164 36.4233 8.06528 
482 2 14.142 38.4489 8.06528 
483 2 14.142 36.4233 10.0908 
484 2 12.1164 38.4489 10.0908 
485 2 16.1676 36.4233 8.06528 
486 2 18.1931 38.4489 8.06528 
487 2 18.1931 36.4233 10.0908 
488 2 16.1676 38.4489 10.0908 
489 2 20.2187 36.4233 8.06528 
490 2 22.2443 38.4489 8.06528 
491 2 22.2443 36.4233 10.0908 
492 2 20.2187 38.4489 10.0908 
493 2 24.2699 36.4233 8.06528 
494 2 26.2954 38.4489 8.06528 
495 2 26.2954 36.4233 10.0908 
496 2 24.2699 38.4489 10.0908 
497 2 28.321 36.4233 8.06528 
498 2 30.3466 38.4489 8.06528 
499 2 30.3466 36.4233 10.0908 
500 2 28.321 38.4489 10.0908 
501 2 32.3721 36.4233 8.06528 
502 2 34.3977 38.4489 8.06528 
503 2 34.3977 36.4233 10.0908 
504 2 32.3721 38.4489 10.0908 
505 2 36.4233 36.4233 8.06528 
506 2 38.4489 38.4489 8.06528 
507 2 38.4489 36.4233 10.0908 
508 2 36.4233 38.4489 10.0908 
509 2 40.4744 36.4233 8.06528 
510 2 42.5 38.4489 8.06528 
511 2 42.5 36.4233 10.0908 
512 2 40.4744 38.4489 10.0908 
513 2 44.5256 36.4233 8.06528 
514 2 46.5511 38.4489 8.06528 
515 2 46.5511 36.4233 10.0908 
516 2 44.5256 38.4489 10.0908 
517 2 48.5767 36.4233 8.06528 
518 2 50.6023 38.4489 8.06528 
519 2 50.6023 36.4233 10.0908 
520 2 48.5767 38.4489 10.0908 
521 2 52.6279 36.4233 8.06528 
522 2 54.6534 38.4489 8.06528 
523 2 54.6534 36.4233 10.0908 
524 2 52.6279 38.4489 10.0908 
525 2 56.679 36.4233 8.06528 
526 2 58.7046 38.4489 8.06528 
527 2 58.7046 36.4233 10.0908 
528 2 56.679 38.4489 10.0908 
529 2 60.7301 36.4233 8.06528 
530 2 62.7557 38.4489 8.06528 
531 2 62.7557 36.4233 10.0908 
532 2 60.7301 38.4489 10.0908 
533 2 64.7813 36.4233 8.06528 
534 2 66.8069 38.4489 8.06528 
535 2 66.8069 36.4233 10.0908 
536 2 64.7813 38.4489 10.0908 
537 2 68.8324 36.4233 8.06528 
538 2 70.858 38.4489 8.06528 
539 2 70.858 36.4233 10.0908 
540 2 68.8324 38.4489 10.0908 
541 2 72.8836 36.4233 8.06528 
542 2 74.9092 38.4489 8.06528 
543 2 74.9092 36.4233 10.0908 
544 2 72.8836 38.4489 10.0908 
545 2 8.06528 40.4744 8.06528 
546 2 10.0908 42.5 8.06528 
547 2 10.0908 40.4744 10.0908 
548 2 8.06528 42.5 10.0908 
549 2 12.1164 40.4744 8.06528 
550 2 14.142 42.5 8.06528 
551 2 14.142 40.4744 10.0908 
552 2 12.1164 42.5 10.0908 
553 2 16.1676 40.4744 8.06528 
554 2 18.1931 42.5 8.06528 
555 2 18.1931 40.4744 10.0908 
556 2 16.1676 42.5 10.0908 
557 2 20.2187 40.4744 8.06528 
558 2 22.2443 42.5 8.06528 
559 2 22.2443 40.4744 10.0908 
560 2 20.2187 42.5 10.0908 
561 2 24.2699 40.4744 8.06528 
562 2 26.2954 42.5 8.06528 
563 2 26.2954 40.4744 10.0908 
564 2 24.2699 42.5 10.0908 
565 2 28.321 40.4744 8.06528 
566 2 30.3466 42.5 8.06528 
567 2 30.3466 40.4744 10.0908 
568 2 28.321 42.5 10.0908 
569 2 32.3721 40.4744 8.06528 
570 2 34.3977 42.5 8.06528 
571 2 34.3977 40.4744 10.0908 
572 2 32.3721 42.5 10.0908 
573 2 36.4233 40.4744 8.06528 
574 2 38.4489 42.5 8.06528 
575 2 38.4489 40.4744 10.0908 
576 2 36.4233 42.5 10.0908 
577 2 40.4744 40.4744 8.06528 
578 2 42.5 42.5 8.06528 
579 2 42.5 40.4744 10.0908 
580 2 40.4744 42.5 10.0908 
581 2 44.5256 40.4744 8.06528 
582 2 46.5511 42.5 8.06528 
583 2 46.5511 40.4744 10.0908 
584 2 44.5256 42.5 10.0908 
585 2 48.5767 40.4744 8.06528 
586 2 50.6023 42.5 8.06528 
587 2 50.6023 40.4744 10.0908 
588 2 48.5767 42.5 10.0908 
589 2 52.6279 40.4744 8.06528 
590 2 54.6534 42.5 8.06528 
591 2 54.6534 40.4744 10.0908 
592 2 52.6279 42.5 10.0908 
593 2 56.679 40.4744 8.06528 
594 2 58.7046 42.5 8.06528 
595 2 58.7046 40.4744 10.0908 
596 2 56.679 42.5 10.0908 
597 2 60.7301 40.4744 8.06528 
598 2 62.7557 42.5 8.06528 
599 2 62.7557 40.4744 10.0908 
600 2 60.7301 42.5 10.0908 
601 2 64.7813 40.4744 8.06528 
602 2 66.8069 42.5 8.06528 
603 2 66.8069 40.4744 10.0908 
604 2 64.7813 42.5 10.0908 
605 2 68.8324 40.4744 8.06528 
606 2 70.858 42.5 8.06528 
607 2 70.858 40.4744 10.0908 
608 2 68.8324 42.5 10.0908 
609 2 72.8836 40.4744 8.06528 
610 2 74.9092 42.5 8.06528 
611 2 74.9092 40.4744 10.0908 
612 2 72.8836 42.5 10.0908 
613 2 8.06528 44.5256 8.06528 
614 2 10.0908 46.5511 8.06528 
615 2 10.0908 44.5256 10.0908 
616 2 8.06528 46.5511 10.0908 
617 2 12.1164 44.5256 8.06528 
618 2 14.142 46.5511 8.06528 
619 2 14.142 44.5256 10.0908 
620 2 12.1164 46.5511 10.0908 
621 2 16.1676 44.5256 8.06528 
622 2 18.1931 46.5511 8.06528 
623 2 18.1931 44.5256 10.0908 
624 2 16.1676 46.5511 10.0908 
625 2 20.2187 44.5256 8.06528 
626 2 22.2443 46.5511 8.06528 
627 2 22.2443 44.5256 10.0908 
628 2 20.2187 46.5511 10.0908 
629 2 24.2699 44.5256 8.06528 
630 2 26.2954 46.5511 8.06528 
631 2 26.2954 44.5256 10.0908 
632 2 24.2699 46.5511 10.0908 
633 2 28.321 44.5256 8.06528 
634 2 30.3466 46.5511 8.06528 
635 2 30.3466 44.5256 10.0908 
636 2 28.321 46.5511 10.0908 
637 2 32.3721 44.5256 8.06528 
638 2 34.3977 46.5511 8.06528 
639 2 34.3977 44.5256 10.0908 
640 2 32.3721 46.5511 10.0908 
641 2 36.4233 44.5256 8.06528 
642 2 38.4489 46.5511 8.06528 
643 2 38.4489 44.5256 10.0908 
644 2 36.4233 46.5511 10.0908 
645 2 40.4744 44.5256 8.06528 
646 2 42.5 46.5511 8.06528 
647 2 42.5 44.5256 10.0908 
648 2 40.4744 46.5511 10.0908 
649 2 44.5256 44.5256 8.06528 
650 2 46.5511 46.5511 8.06528 
651 2 46.5511 44.5256 10.0908 
652 2 44.5256 46.5511 10.0908 
653 2 48.5767 44.5256 8.06528 
654 2 50.6023 46.5511 8.06528 
655 2 50.6023 44.5256 10.0908 
656 2 48.5767 46.5511 10.0908 
657 2 52.6279 44.5256 8.06528 
658 2 54.6534 46.5511 8.06528 
659 2 54.6534 44.5256 10.0908 
660 2 52.6279 46.5511 10.0908 
661 2 56.679 44.5256 8.06528 
662 2 58.7046 46.5511 8.06528 
663 2 58.7046 44.5256 10.0908 
664 2 56.679 46.5511 10.0908 
665 2 60.7301 44.5256 8.06528 
666 2 62.7557 46.5511 8.06528 
667 2 62.7557 44.5256 10.0908 
668 2 60.7301 46.5511 10.0908 
669 2 64.7813 44.5256 8.06528 
670 2 66.8069 46.5511 8.06528 
671 2 66.8069 44.5256 10.0908 
672 2 64.7813 46.5511 10.0908 
673 2 68.8324 44.5256 8.06528 
674 2 70.858 46.5511 8.06528 
675 2 70.858 44.5256 10.0908 
676 2 68.8324 46.5511 10.0908 
677 2 72.8836 44.5256 8.06528 
678 2 74.9092 46.5511 8.06528 
679 2 74.9092 44.5256 10.0908 
680 2 72.8836 46.5511 10.0908 
681 2 8.06528 48.5767 8.06528 
682 2 10.0908 50.6023 8.06528 
683 2 10.0908 48.5767 10.0908 
684 2 8.06528 50.6023 10.0908 
685 2 12.1164 48.5767 8.06528 
686 2 14.142 50.6023 8.06528 
687 2 14.142 48.5767 10.0908 
688 2 12.1164 50.6023 10.0908 
689 2 16.1676 48.5767 8.06528 
690 2 18.1931 50.6023 8.06528 
691 2 18.1931 48.5767 10.0908 
692 2 16.1676 50.6023 10.0908 
693 2 20.2187 48.5767 8.06528 
694 2 22.2443 50.6023 8.06528 
695 2 22.2443 48.5767 10.0908 
696 2 20.2187 50.6023 10.0908 
697 2 24.2699 48.5767 8.06528 
698 2 26.2954 50.6023 8.06528 
699 2 26.2954 48.5767 10.0908 
700 2 24.2699 50.6023 10.0908 
701 2 28.321 48.5767 8.06528 
702 2 30.3466 50.6023 8.06528 
703 2 30.3466 48.5767 10.0908 
704 2 28.321 50.6023 10.0908 
705 2 32.3721 48.5767 8.06528 
706 2 34.3977 50.6023 8.06528 
707 2 34.3977 48.5767 10.0908 
708 2 32.3721 50.6023 10.0908 
709 2 36.4233 48.5767 8.06528 
710 2 38.4489 50.6023 8.06528 
711 2 38.4489 48.5767 10.0908 
712 2 36.4233 50.6023 10.0908 
713 2 40.4744 48.5767 8.06528 
714 2 42.5 50.6023 8.06528 
715 2 42.5 48.5767 10.0908 
716 2 40.4744 50.6023 10.0908 
717 2 44.5256 48.5767 8.06528 
718 2 46.5511 50.6023 8.06528 
719 2 46.5511 48.5767 10.0908 
720 2 44.5256 50.6023 10.0908 
721 2 48.5767 48.5767 8.06528 
722 2 50.6023 50.6023 8.06528 
723 2 50.6023 48.5767 10.0908 
724 2 48.5767 50.6023 10.0908 
725 2 52.6279 48.5767 8.06528 
726 2 54.6534 50.6023 8.06528 
727 2 54.6534 48.5767 10.0908 
728 2 52.6279 50.6023 10.0908 
729 2 56.679 48.5767 8.06528 
730 2 58.7046 50.6023 8.06528 
731 2 58.7046 48.5767 10.0908 
732 2 56.679 50.6023 10.0908 
733 2 60.7301 48.5767 8.06528 
734 2 62.7557 50.6023 8.06528 
735 2 62.7557 48.5767 10.0908 
736 2 60.7301 50.6023 10.0908 
737 2 64.7813 48.5767 8.06528 
738 2 66.8069 50.6023 8.06528 
739 2 66.8069 48.5767 10.0908 
740 2 64.7813 50.6023 10.0908 
741 2 68.8324 48.5767 8.06528 
742 2 70.858 50.6023 8.06528 
743 2 70.858 48.5767 10.0908 
744 2 68.8324 50.6023 10.0908 
745 2 72.8836 48.5767 8.06528 
746 2 74.9092 50.6023 8.06528 
747 2 74.9092 48.5767 10.0908 
748 2 72.8836 50.6023 10.0908 
749 2 8.06528 52.6279 8.06528 
750 2 10.0908 54.6534 8.06528 
751 2 10.0908 52.6279 10.0908 
752 2 8.06528 54.6534 10.0908 
753 2 12.1164 52.6279 8.06528 
754 2 14.142 54.6534 8.06528 
755 2 14.142 52.6279 10.0908 
756 2 12.1164 54.6534 10.0908 
757 2 16.1676 52.6279 8.06528 
758 2 18.1931 54.6534 8.06528 
759 2 18.1931 52.6279 10.0908 
760 2 16.1676 54.6534 10.0908 
761 2 20.2187 52.6279 8.06528 
762 2 22.2443 54.6534 8.06528 
763 2 22.2443 52.6279 10.0908 
764 2 20.2187 54.6534 10.0908 
765 2 24.2699 52.6279 8.06528 
766 2 26.2954 54.6534 8.06528 
767 2 26.2954 52.6279 10.0908 
768 2 24.2699 54.6534 10.0908 
769 2 28.321 52.6279 8.06528 
770 2 30.3466 54.6534 8.06528 
771 2 30.3466 52.6279 10.0908 
772 2 28.321 54.6534 10.0908 
773 2 32.3721 52.6279 8.06528 
774 2 34.3977 54.6534 8.06528 
775 2 34.3977 52.6279 10.0908 
776 2 32.3721 54.6534 10.0908 
777 2 36.4233 52.6279 8.06528 
778 2 38.4489 54.6534 8.06528 
779 2 38.4489 52.6279 10.0908 
780 2 36.4233 54.6534 10.0908 
781 2 40.4744 52.6279 8.06528 
782 2 42.5 54.6534 8.06528 
783 2 42.5 52.6279 10.0908 
784 2 40.4744 54.6534 10.0908 
785 2 44.5256 52.6279 8.06528 
786 2 46.5511 54.6534 8.06528 
787 2 46.5511 52.6279 10.0908 
788 2 44.5256 54.6534 10.0908 
789 2 48.5767 52.6279 8.06528 
790 2 50.6023 54.6534 8.06528 
791 2 50.6023 52.6279 10.0908 
792 2 48.5767 54.6534 10.0908 
793 2 52.6279 52.6279 8.06528 
794 2 54.6534 54.6534 8.06528 
795 2 54.6534 52.6279 10.0908 
796 2 52.6279 54.6534 10.0908 
797 2 56.679 52.6279 8.06528 
798 2 58.7046 54.6534 8.06528 
799 2 58.7046 52.6279 10.0908 
800 2 56.679 54.6534 10.0908 
801 2 60.7301 52.6279 8.06528 
802 2 62.7557 54.6534 8.06528 
803 2 62.7557 52.6279 10.0908 
804 2 60.7301 54.6534 10.0908 
805 2 64.7813 52.6279 8.06528 
806 2 66.8069 54.6534 8.06528 
807 2 66.8069 52.6279 10.0908 
808 2 64.7813 54.6534 10.0908 
809 2 68.8324 52.6279 8.06528 
810 2 70.858 54.6534 8.06528 
811 2 70.858 52.6279 10.0908 
812 2 68.8324 54.6534 10.0908 
813 2 72.8836 52.6279 8.06528 
814 2 74.9092 54.6534 8.06528 
815 2 74.9092 52.6279 10.0908 
816 2 72.8836 54.6534 10.0908 
817 2 8.06528 56.679 8.06528 
818 2 10.0908 58.7046 8.06528 
819 2 10.0908 56.679 10.0908 
820 2 8.06528 58.7046 10.0908 
821 2 12.1164 56.679 8.06528 
822 2 14.142 58.7046 8.06528 
823 2 14.142 56.679 10.0908 
824 2 12.1164 58.7046 10.0908 
825 2 16.1676 56.679 8.06528 
826 2 18.1931 58.7046 8.06528 
827 2 18.1931 56.679 10.0908 
828 2 16.1676 58.7046 10.0908 
829 2 20.2187 56.679 8.06528 
830 2 22.2443 58.7046 8.06528 
831 2 22.2443 56.679 10.0908 
832 2 20.2187 58.7046 10.0908 
833 2 24.2699 56.679 8.06528 
834 2 26.2954 58.7046 8.06528 
835 2 26.2954 56.679 10.0908 
836 2 24.2699 58.7046 10.0908 
837 2 28.321 56.679 8.06528 
838 2 30.3466 58.7046 8.06528 
839 2 30.3466 56.679 10.0908 
840 2 28.321 58.7046 10.0908 
841 2 32.3721 56.679 8.06528 
842 2 34.3977 58.7046 8.06528 
843 2 34.3977 56.679 10.0908 
844 2 32.3721 58.7046 10.0908 
845 2 36.4233 56.679 8.06528 
846 2 38.4489 58.7046 8.06528 
847 2 38.4489 56.679 10.0908 
848 2 36.4233 58.7046 10.0908 
849 2 40.4744 56.679 8.06528 
850 2 42.5 58.7046 8.06528 
851 2 42.5 56.679 10.0908 
852 2 40.4744 58.7046 10.0908 
853 2 44.5256 56.679 8.06528 
854 2 46.5511 58.7046 8.06528 
855 2 46.5511 56.679 10.0908 
856 2 44.5256 58.7046 10.0908 
857 2 48.5767 56.679 8.06528 
858 2 50.6023 58.7046 8.06528 
859 2 50.6023 56.679 10.0908 
860 2 48.5767 58.7046 10.0908 
861 2 52.6279 56.679 8.06528 
862 2 54.6534 58.7046 8.06528 
863 2 54.6534 56.679 10.0908 
864 2 52.6279 58.7046 10.0908 
865 2 56.679 56.679 8.06528 
866 2 58.7046 58.7046 8.06528 
867 2 58.7046 56.679 10.0908 
868 2 56.679 58.7046 10.0908 
869 2 60.7301 56.679 8.06528 
870 2 62.7557 58.7046 8.06528 
871 2 62.7557 56.679 10.0908 
872 2 60.7301 58.7046 10.0908 
873 2 64.7813 56.679 8.06528 
874 2 66.8069 58.7046 8.06528 
875 2 66.8069 56.679 10.0908 
876 2 64.7813 58.7046 10.0908 
877 2 68.8324 56.679 8.06528 
878 2 70.858 58.7046 8.06528 
879 2 70.858 56.679 10.0908 
880 2 68.8324 58.7046 10.0908 
881 2 72.8836 56.679 8.06528 
882 2 74.9092 58.7046 8.06528 
883 2 74.9092 56.679 10.0908 
884 2 72.8836 58.7046 10.0908 
885 2 8.06528 60.7301 8.06528 
886 2 10.0908 62.7557 8.06528 
887 2 10.0908 60.7301 10.0908 
888 2 8.06528 62.7557 10.0908 
889 2 12.1164 60.7301 8.06528 
890 2 14.142 62.7557 8.06528 
891 2 14.142 60.7301 10.0908 
892 2 12.1164 62.7557 10.0908 
893 2 16.1676 60.7301 8.06528 
894 2 18.1931 62.7557 8.06528 
895 2 18.1931 60.7301 10.0908 
896 2 16.1676 62.7557 10.0908 
897 2 20.2187 60.7301 8.06528 
898 2 22.2443 62.7557 8.06528 
899 2 22.2443 60.7301 10.0908 
900 2 20.2187 62.7557 10.0908 
901 2 24.2699 60.7301 8.06528 
902 2 26.2954 62.7557 8.06528 
903 2 26.2954 60.7301 10.0908 
904 2 24.2699 62.7557 10.0908 
905 2 28.321 60.7301 8.06528 
906 2 30.3466 62.7557 8.06528 
907 2 30.3466 60.7301 10.0908 
908 2 28.321 62.7557 10.0908 
909 2 32.3721 60.7301 8.06528 
910 2 34.3977 62.7557 8.06528 
911 2 34.3977 60.7301 10.0908 
912 2 32.3721 62.7557 10.0908 
913 2 36.4233 60.7301 8.06528 
914 2 38.4489 62.7557 8.06528 
915 2 38.4489 60.7301 10.0908 
916 2 36.4233 62.7557 10.0908 
917 2 40.4744 60.7301 8.06528 
918 2 42.5 62.7557 8.06528 
919 2 42.5 60.7301 10.0908 
920 2 40.4744 62.7557 10.0908 
921 2 44.5256 60.7301 8.06528 
922 2 46.5511 62.7557 8.06528 
923 2 46.5511 60.7301 10.0908 
924 2 44.5256 62.7557 10.0908 
925 2 48.5767 60.7301 8.06528 
926 2 50.6023 62.7557 8.06528 
927 2 50.6023 60.7301 10.0908 
928 2 48.5767 62.7557 10.0908 
929 2 52.6279 60.7301 8.06528 
930 2 54.6534 62.7557 8.06528 
931 2 54.6534 60.7301 10.0908 
932 2 52.6279 62.7557 10.0908 
933 2 56.679 60.7301 8.06528 
934 2 58.7046 62.7557 8.06528 
935 2 58.7046 60.7301 10.0908 
936 2 56.679 62.7557 10.0908 
937 2 60.7301 60.7301 8.06528 
938 2 62.7557 62.7557 8.06528 
939 2 62.7557 60.7301 10.0908 
940 2 60.7301 62.7557 10.0908 
941 2 64.7813 60.7301 8.06528 
942 2 66.8069 62.7557 8.06528 
943 2 66.8069 60.7301 10.0908 
944 2 64.7813 62.7557 10.0908 
945 2 68.8324 60.7301 8.06528 
946 2 70.858 62.7557 8.06528 
947 2 70.858 60.7301 10.0908 
948 2 68.8324 62.7557 10.0908 
949 2 72.8836 60.7301 8.06528 
950 2 74.9092 62.7557 8.06528 
951 2 74.9092 60.7301 10.0908 
952 2 72.8836 62.7557 10.0908 
953 2 8.06528 64.7813 8.06528 
954 2 10.0908 66.8069 8.06528 
955 2 10.0908 64.7813 10.0908 
956 2 8.06528 66.8069 10.0908 
957 2 12.1164 64.7813 8.06528 
958 2 14.142 66.8069 8.06528 
959 2 14.142 64.7813 10.0908 
960 2 12.1164 66.8069 10.0908 
961 2 16.1676 64.7813 8.06528 
962 2 18.1931 66.8069 8.06528 
963 2 18.1931 64.7813 10.0908 
964 2 16.1676 66.8069 10.0908 
965 2 20.2187 64.7813 8.06528 
966 2 22.2443 66.8069 8.06528 
967 2 22.2443 64.7813 10.0908 
968 2 20.2187 66.8069 10.0908 
969 2 24.2699 64.7813 8.06528 
970 2 26.2954 66.8069 8.06528 
971 2 26.2954 64.7813 10.0908 
972 2 24.2699 66.8069 10.0908 
973 2 28.321 64.7813 8.06528 
974 2 30.3466 66.8069 8.06528 
975 2 30.3466 64.7813 10.0908 
976 2 28.321 66.8069 10.0908 