ITEM: TIMESTEP
52
ITEM: NUMBER OF ATOMS
19652
ITEM: BOX BOUNDS pp pp pp
1.0592248852141063e+01 7.4407751147858662e+01
1.8346313178321388e+01 1.2887800546503368e+02
1.7297069944217622e+01 1.2150734881349553e+02
ITEM: ATOMS id type xu yu zu 
1 1 10.5922 18.3463 17.2971 
2 1 12.4692 21.5972 17.2971 
3 1 12.4692 23.7645 20.3621 
4 1 10.5922 20.5136 20.3621 
5 1 14.3461 18.3463 17.2971 
6 1 16.223 21.5972 17.2971 
7 1 16.223 23.7645 20.3621 
8 1 14.3461 20.5136 20.3621 
9 1 18.1 18.3463 17.2971 
10 1 19.9769 21.5972 17.2971 
11 1 19.9769 23.7645 20.3621 
12 1 18.1 20.5136 20.3621 
13 1 21.8538 18.3463 17.2971 
14 1 23.7307 21.5972 17.2971 
15 1 23.7307 23.7645 20.3621 
16 1 21.8538 20.5136 20.3621 
17 1 25.6077 18.3463 17.2971 
18 1 27.4846 21.5972 17.2971 
19 1 27.4846 23.7645 20.3621 
20 1 25.6077 20.5136 20.3621 
21 1 29.3615 18.3463 17.2971 
22 1 31.2384 21.5972 17.2971 
23 1 31.2384 23.7645 20.3621 
24 1 29.3615 20.5136 20.3621 
25 1 33.1154 18.3463 17.2971 
26 1 34.9923 21.5972 17.2971 
27 1 34.9923 23.7645 20.3621 
28 1 33.1154 20.5136 20.3621 
29 1 36.8692 18.3463 17.2971 
30 1 38.7461 21.5972 17.2971 
31 1 38.7461 23.7645 20.3621 
32 1 36.8692 20.5136 20.3621 
33 1 40.6231 18.3463 17.2971 
34 1 42.5 21.5972 17.2971 
35 1 42.5 23.7645 20.3621 
36 1 40.6231 20.5136 20.3621 
37 1 44.3769 18.3463 17.2971 
38 1 46.2539 21.5972 17.2971 
39 1 46.2539 23.7645 20.3621 
40 1 44.3769 20.5136 20.3621 
41 1 48.1308 18.3463 17.2971 
42 1 50.0077 21.5972 17.2971 
43 1 50.0077 23.7645 20.3621 
44 1 48.1308 20.5136 20.3621 
45 1 51.8846 18.3463 17.2971 
46 1 53.7616 21.5972 17.2971 
47 1 53.7616 23.7645 20.3621 
48 1 51.8846 20.5136 20.3621 
49 1 55.6385 18.3463 17.2971 
50 1 57.5154 21.5972 17.2971 
51 1 57.5154 23.7645 20.3621 
52 1 55.6385 20.5136 20.3621 
53 1 59.3923 18.3463 17.2971 
54 1 61.2693 21.5972 17.2971 
55 1 61.2693 23.7645 20.3621 
56 1 59.3923 20.5136 20.3621 
57 1 63.1462 18.3463 17.2971 
58 1 65.0231 21.5972 17.2971 
59 1 65.0231 23.7645 20.3621 
60 1 63.1462 20.5136 20.3621 
61 1 66.9 18.3463 17.2971 
62 1 68.777 21.5972 17.2971 
63 1 68.777 23.7645 20.3621 
64 1 66.9 20.5136 20.3621 
65 1 70.6539 18.3463 17.2971 
66 1 72.5308 21.5972 17.2971 
67 1 72.5308 23.7645 20.3621 
68 1 70.6539 20.5136 20.3621 
69 1 10.5922 24.8482 17.2971 
70 1 12.4692 28.0991 17.2971 
71 1 12.4692 30.2664 20.3621 
72 1 10.5922 27.0155 20.3621 
73 1 14.3461 24.8482 17.2971 
74 1 16.223 28.0991 17.2971 
75 1 16.223 30.2664 20.3621 
76 1 14.3461 27.0155 20.3621 
77 1 18.1 24.8482 17.2971 
78 1 19.9769 28.0991 17.2971 
79 1 19.9769 30.2664 20.3621 
80 1 18.1 27.0155 20.3621 
81 1 21.8538 24.8482 17.2971 
82 1 23.7307 28.0991 17.2971 
83 1 23.7307 30.2664 20.3621 
84 1 21.8538 27.0155 20.3621 
85 1 25.6077 24.8482 17.2971 
86 1 27.4846 28.0991 17.2971 
87 1 27.4846 30.2664 20.3621 
88 1 25.6077 27.0155 20.3621 
89 1 29.3615 24.8482 17.2971 
90 1 31.2384 28.0991 17.2971 
91 1 31.2384 30.2664 20.3621 
92 1 29.3615 27.0155 20.3621 
93 1 33.1154 24.8482 17.2971 
94 1 34.9923 28.0991 17.2971 
95 1 34.9923 30.2664 20.3621 
96 1 33.1154 27.0155 20.3621 
97 1 36.8692 24.8482 17.2971 
98 1 38.7461 28.0991 17.2971 
99 1 38.7461 30.2664 20.3621 
100 1 36.8692 27.0155 20.3621 
101 1 40.6231 24.8482 17.2971 
102 1 42.5 28.0991 17.2971 
103 1 42.5 30.2664 20.3621 
104 1 40.6231 27.0155 20.3621 
105 1 44.3769 24.8482 17.2971 
106 1 46.2539 28.0991 17.2971 
107 1 46.2539 30.2664 20.3621 
108 1 44.3769 27.0155 20.3621 
109 1 48.1308 24.8482 17.2971 
110 1 50.0077 28.0991 17.2971 
111 1 50.0077 30.2664 20.3621 
112 1 48.1308 27.0155 20.3621 
113 1 51.8846 24.8482 17.2971 
114 1 53.7616 28.0991 17.2971 
115 1 53.7616 30.2664 20.3621 
116 1 51.8846 27.0155 20.3621 
117 1 55.6385 24.8482 17.2971 
118 1 57.5154 28.0991 17.2971 
119 1 57.5154 30.2664 20.3621 
120 1 55.6385 27.0155 20.3621 
121 1 59.3923 24.8482 17.2971 
122 1 61.2693 28.0991 17.2971 
123 1 61.2693 30.2664 20.3621 
124 1 59.3923 27.0155 20.3621 
125 1 63.1462 24.8482 17.2971 
126 1 65.0231 28.0991 17.2971 
127 1 65.0231 30.2664 20.3621 
128 1 63.1462 27.0155 20.3621 
129 1 66.9 24.8482 17.2971 
130 1 68.777 28.0991 17.2971 
131 1 68.777 30.2664 20.3621 
132 1 66.9 27.0155 20.3621 
133 1 70.6539 24.8482 17.2971 
134 1 72.5308 28.0991 17.2971 
135 1 72.5308 30.2664 20.3621 
136 1 70.6539 27.0155 20.3621 
137 1 10.5922 31.35 17.2971 
138 1 12.4692 34.601 17.2971 
139 1 12.4692 36.7683 20.3621 
140 1 10.5922 33.5173 20.3621 
141 1 14.3461 31.35 17.2971 
142 1 16.223 34.601 17.2971 
143 1 16.223 36.7683 20.3621 
144 1 14.3461 33.5173 20.3621 
145 1 18.1 31.35 17.2971 
146 1 19.9769 34.601 17.2971 
147 1 19.9769 36.7683 20.3621 
148 1 18.1 33.5173 20.3621 
149 1 21.8538 31.35 17.2971 
150 1 23.7307 34.601 17.2971 
151 1 23.7307 36.7683 20.3621 
152 1 21.8538 33.5173 20.3621 
153 1 25.6077 31.35 17.2971 
154 1 27.4846 34.601 17.2971 
155 1 27.4846 36.7683 20.3621 
156 1 25.6077 33.5173 20.3621 
157 1 29.3615 31.35 17.2971 
158 1 31.2384 34.601 17.2971 
159 1 31.2384 36.7683 20.3621 
160 1 29.3615 33.5173 20.3621 
161 1 33.1154 31.35 17.2971 
162 1 34.9923 34.601 17.2971 
163 1 34.9923 36.7683 20.3621 
164 1 33.1154 33.5173 20.3621 
165 1 36.8692 31.35 17.2971 
166 1 38.7461 34.601 17.2971 
167 1 38.7461 36.7683 20.3621 
168 1 36.8692 33.5173 20.3621 
169 1 40.6231 31.35 17.2971 
170 1 42.5 34.601 17.2971 
171 1 42.5 36.7683 20.3621 
172 1 40.6231 33.5173 20.3621 
173 1 44.3769 31.35 17.2971 
174 1 46.2539 34.601 17.2971 
175 1 46.2539 36.7683 20.3621 
176 1 44.3769 33.5173 20.3621 
177 1 48.1308 31.35 17.2971 
178 1 50.0077 34.601 17.2971 
179 1 50.0077 36.7683 20.3621 
180 1 48.1308 33.5173 20.3621 
181 1 51.8846 31.35 17.2971 
182 1 53.7616 34.601 17.2971 
183 1 53.7616 36.7683 20.3621 
184 1 51.8846 33.5173 20.3621 
185 1 55.6385 31.35 17.2971 
186 1 57.5154 34.601 17.2971 
187 1 57.5154 36.7683 20.3621 
188 1 55.6385 33.5173 20.3621 
189 1 59.3923 31.35 17.2971 
190 1 61.2693 34.601 17.2971 
191 1 61.2693 36.7683 20.3621 
192 1 59.3923 33.5173 20.3621 
193 1 63.1462 31.35 17.2971 
194 1 65.0231 34.601 17.2971 
195 1 65.0231 36.7683 20.3621 
196 1 63.1462 33.5173 20.3621 
197 1 66.9 31.35 17.2971 
198 1 68.777 34.601 17.2971 
199 1 68.777 36.7683 20.3621 
200 1 66.9 33.5173 20.3621 
201 1 70.6539 31.35 17.2971 
202 1 72.5308 34.601 17.2971 
203 1 72.5308 36.7683 20.3621 
204 1 70.6539 33.5173 20.3621 
205 1 10.5922 37.8519 17.2971 
206 1 12.4692 41.1028 17.2971 
207 1 12.4692 43.2701 20.3621 
208 1 10.5922 40.0192 20.3621 
209 1 14.3461 37.8519 17.2971 
210 1 16.223 41.1028 17.2971 
211 1 16.223 43.2701 20.3621 
212 1 14.3461 40.0192 20.3621 
213 1 18.1 37.8519 17.2971 
214 1 19.9769 41.1028 17.2971 
215 1 19.9769 43.2701 20.3621 
216 1 18.1 40.0192 20.3621 
217 1 21.8538 37.8519 17.2971 
218 1 23.7307 41.1028 17.2971 
219 1 23.7307 43.2701 20.3621 
220 1 21.8538 40.0192 20.3621 
221 1 25.6077 37.8519 17.2971 
222 1 27.4846 41.1028 17.2971 
223 1 27.4846 43.2701 20.3621 
224 1 25.6077 40.0192 20.3621 
225 1 29.3615 37.8519 17.2971 
226 1 31.2384 41.1028 17.2971 
227 1 31.2384 43.2701 20.3621 
228 1 29.3615 40.0192 20.3621 
229 1 33.1154 37.8519 17.2971 
230 1 34.9923 41.1028 17.2971 
231 1 34.9923 43.2701 20.3621 
232 1 33.1154 40.0192 20.3621 
233 1 36.8692 37.8519 17.2971 
234 1 38.7461 41.1028 17.2971 
235 1 38.7461 43.2701 20.3621 
236 1 36.8692 40.0192 20.3621 
237 1 40.6231 37.8519 17.2971 
238 1 42.5 41.1028 17.2971 
239 1 42.5 43.2701 20.3621 
240 1 40.6231 40.0192 20.3621 
241 1 44.3769 37.8519 17.2971 
242 1 46.2539 41.1028 17.2971 
243 1 46.2539 43.2701 20.3621 
244 1 44.3769 40.0192 20.3621 
245 1 48.1308 37.8519 17.2971 
246 1 50.0077 41.1028 17.2971 
247 1 50.0077 43.2701 20.3621 
248 1 48.1308 40.0192 20.3621 
249 1 51.8846 37.8519 17.2971 
250 1 53.7616 41.1028 17.2971 
251 1 53.7616 43.2701 20.3621 
252 1 51.8846 40.0192 20.3621 
253 1 55.6385 37.8519 17.2971 
254 1 57.5154 41.1028 17.2971 
255 1 57.5154 43.2701 20.3621 
256 1 55.6385 40.0192 20.3621 
257 1 59.3923 37.8519 17.2971 
258 1 61.2693 41.1028 17.2971 
259 1 61.2693 43.2701 20.3621 
260 1 59.3923 40.0192 20.3621 
261 1 63.1462 37.8519 17.2971 
262 1 65.0231 41.1028 17.2971 
263 1 65.0231 43.2701 20.3621 
264 1 63.1462 40.0192 20.3621 
265 1 66.9 37.8519 17.2971 
266 1 68.777 41.1028 17.2971 
267 1 68.777 43.2701 20.3621 
268 1 66.9 40.0192 20.3621 
269 1 70.6539 37.8519 17.2971 
270 1 72.5308 41.1028 17.2971 
271 1 72.5308 43.2701 20.3621 
272 1 70.6539 40.0192 20.3621 
273 1 10.5922 44.3538 17.2971 
274 1 12.4692 47.6047 17.2971 
275 1 12.4692 49.772 20.3621 
276 1 10.5922 46.5211 20.3621 
277 1 14.3461 44.3538 17.2971 
278 1 16.223 47.6047 17.2971 
279 1 16.223 49.772 20.3621 
280 1 14.3461 46.5211 20.3621 
281 1 18.1 44.3538 17.2971 
282 1 19.9769 47.6047 17.2971 
283 1 19.9769 49.772 20.3621 
284 1 18.1 46.5211 20.3621 
285 1 21.8538 44.3538 17.2971 
286 1 23.7307 47.6047 17.2971 
287 1 23.7307 49.772 20.3621 
288 1 21.8538 46.5211 20.3621 
289 1 25.6077 44.3538 17.2971 
290 1 27.4846 47.6047 17.2971 
291 1 27.4846 49.772 20.3621 
292 1 25.6077 46.5211 20.3621 
293 1 29.3615 44.3538 17.2971 
294 1 31.2384 47.6047 17.2971 
295 1 31.2384 49.772 20.3621 
296 1 29.3615 46.5211 20.3621 
297 1 33.1154 44.3538 17.2971 
298 1 34.9923 47.6047 17.2971 
299 1 34.9923 49.772 20.3621 
300 1 33.1154 46.5211 20.3621 
301 1 36.8692 44.3538 17.2971 
302 1 38.7461 47.6047 17.2971 
303 1 38.7461 49.772 20.3621 
304 1 36.8692 46.5211 20.3621 
305 1 40.6231 44.3538 17.2971 
306 1 42.5 47.6047 17.2971 
307 1 42.5 49.772 20.3621 
308 1 40.6231 46.5211 20.3621 
309 1 44.3769 44.3538 17.2971 
310 1 46.2539 47.6047 17.2971 
311 1 46.2539 49.772 20.3621 
312 1 44.3769 46.5211 20.3621 
313 1 48.1308 44.3538 17.2971 
314 1 50.0077 47.6047 17.2971 
315 1 50.0077 49.772 20.3621 
316 1 48.1308 46.5211 20.3621 
317 1 51.8846 44.3538 17.2971 
318 1 53.7616 47.6047 17.2971 
319 1 53.7616 49.772 20.3621 
320 1 51.8846 46.5211 20.3621 
321 1 55.6385 44.3538 17.2971 
322 1 57.5154 47.6047 17.2971 
323 1 57.5154 49.772 20.3621 
324 1 55.6385 46.5211 20.3621 
325 1 59.3923 44.3538 17.2971 
326 1 61.2693 47.6047 17.2971 
327 1 61.2693 49.772 20.3621 
328 1 59.3923 46.5211 20.3621 
329 1 63.1462 44.3538 17.2971 
330 1 65.0231 47.6047 17.2971 
331 1 65.0231 49.772 20.3621 
332 1 63.1462 46.5211 20.3621 
333 1 66.9 44.3538 17.2971 
334 1 68.777 47.6047 17.2971 
335 1 68.777 49.772 20.3621 
336 1 66.9 46.5211 20.3621 
337 1 70.6539 44.3538 17.2971 
338 1 72.5308 47.6047 17.2971 
339 1 72.5308 49.772 20.3621 
340 1 70.6539 46.5211 20.3621 
341 1 10.5922 50.8556 17.2971 
342 1 12.4692 54.1066 17.2971 
343 1 12.4692 56.2739 20.3621 
344 1 10.5922 53.0229 20.3621 
345 1 14.3461 50.8556 17.2971 
346 1 16.223 54.1066 17.2971 
347 1 16.223 56.2739 20.3621 
348 1 14.3461 53.0229 20.3621 
349 1 18.1 50.8556 17.2971 
350 1 19.9769 54.1066 17.2971 
351 1 19.9769 56.2739 20.3621 
352 1 18.1 53.0229 20.3621 
353 1 21.8538 50.8556 17.2971 
354 1 23.7307 54.1066 17.2971 
355 1 23.7307 56.2739 20.3621 
356 1 21.8538 53.0229 20.3621 
357 1 25.6077 50.8556 17.2971 
358 1 27.4846 54.1066 17.2971 
359 1 27.4846 56.2739 20.3621 
360 1 25.6077 53.0229 20.3621 
361 1 29.3615 50.8556 17.2971 
362 1 31.2384 54.1066 17.2971 
363 1 31.2384 56.2739 20.3621 
364 1 29.3615 53.0229 20.3621 
365 1 33.1154 50.8556 17.2971 
366 1 34.9923 54.1066 17.2971 
367 1 34.9923 56.2739 20.3621 
368 1 33.1154 53.0229 20.3621 
369 1 36.8692 50.8556 17.2971 
370 1 38.7461 54.1066 17.2971 
371 1 38.7461 56.2739 20.3621 
372 1 36.8692 53.0229 20.3621 
373 1 40.6231 50.8556 17.2971 
374 1 42.5 54.1066 17.2971 
375 1 42.5 56.2739 20.3621 
376 1 40.6231 53.0229 20.3621 
377 1 44.3769 50.8556 17.2971 
378 1 46.2539 54.1066 17.2971 
379 1 46.2539 56.2739 20.3621 
380 1 44.3769 53.0229 20.3621 
381 1 48.1308 50.8556 17.2971 
382 1 50.0077 54.1066 17.2971 
383 1 50.0077 56.2739 20.3621 
384 1 48.1308 53.0229 20.3621 
385 1 51.8846 50.8556 17.2971 
386 1 53.7616 54.1066 17.2971 
387 1 53.7616 56.2739 20.3621 
388 1 51.8846 53.0229 20.3621 
389 1 55.6385 50.8556 17.2971 
390 1 57.5154 54.1066 17.2971 
391 1 57.5154 56.2739 20.3621 
392 1 55.6385 53.0229 20.3621 
393 1 59.3923 50.8556 17.2971 
394 1 61.2693 54.1066 17.2971 
395 1 61.2693 56.2739 20.3621 
396 1 59.3923 53.0229 20.3621 
397 1 63.1462 50.8556 17.2971 
398 1 65.0231 54.1066 17.2971 
399 1 65.0231 56.2739 20.3621 
400 1 63.1462 53.0229 20.3621 
401 1 66.9 50.8556 17.2971 
402 1 68.777 54.1066 17.2971 
403 1 68.777 56.2739 20.3621 
404 1 66.9 53.0229 20.3621 
405 1 70.6539 50.8556 17.2971 
406 1 72.5308 54.1066 17.2971 
407 1 72.5308 56.2739 20.3621 
408 1 70.6539 53.0229 20.3621 
409 1 10.5922 57.3575 17.2971 
410 1 12.4692 60.6084 17.2971 
411 1 12.4692 62.7757 20.3621 
412 1 10.5922 59.5248 20.3621 
413 1 14.3461 57.3575 17.2971 
414 1 16.223 60.6084 17.2971 
415 1 16.223 62.7757 20.3621 
416 1 14.3461 59.5248 20.3621 
417 1 18.1 57.3575 17.2971 
418 1 19.9769 60.6084 17.2971 
419 1 19.9769 62.7757 20.3621 
420 1 18.1 59.5248 20.3621 
421 1 21.8538 57.3575 17.2971 
422 1 23.7307 60.6084 17.2971 
423 1 23.7307 62.7757 20.3621 
424 1 21.8538 59.5248 20.3621 
425 1 25.6077 57.3575 17.2971 
426 1 27.4846 60.6084 17.2971 
427 1 27.4846 62.7757 20.3621 
428 1 25.6077 59.5248 20.3621 
429 1 29.3615 57.3575 17.2971 
430 1 31.2384 60.6084 17.2971 
431 1 31.2384 62.7757 20.3621 
432 1 29.3615 59.5248 20.3621 
433 1 33.1154 57.3575 17.2971 
434 1 34.9923 60.6084 17.2971 
435 1 34.9923 62.7757 20.3621 
436 1 33.1154 59.5248 20.3621 
437 1 36.8692 57.3575 17.2971 
438 1 38.7461 60.6084 17.2971 
439 1 38.7461 62.7757 20.3621 
440 1 36.8692 59.5248 20.3621 
441 1 40.6231 57.3575 17.2971 
442 1 42.5 60.6084 17.2971 
443 1 42.5 62.7757 20.3621 
444 1 40.6231 59.5248 20.3621 
445 1 44.3769 57.3575 17.2971 
446 1 46.2539 60.6084 17.2971 
447 1 46.2539 62.7757 20.3621 
448 1 44.3769 59.5248 20.3621 
449 1 48.1308 57.3575 17.2971 
450 1 50.0077 60.6084 17.2971 
451 1 50.0077 62.7757 20.3621 
452 1 48.1308 59.5248 20.3621 
453 1 51.8846 57.3575 17.2971 
454 1 53.7616 60.6084 17.2971 
455 1 53.7616 62.7757 20.3621 
456 1 51.8846 59.5248 20.3621 
457 1 55.6385 57.3575 17.2971 
458 1 57.5154 60.6084 17.2971 
459 1 57.5154 62.7757 20.3621 
460 1 55.6385 59.5248 20.3621 
461 1 59.3923 57.3575 17.2971 
462 1 61.2693 60.6084 17.2971 
463 1 61.2693 62.7757 20.3621 
464 1 59.3923 59.5248 20.3621 
465 1 63.1462 57.3575 17.2971 
466 1 65.0231 60.6084 17.2971 
467 1 65.0231 62.7757 20.3621 
468 1 63.1462 59.5248 20.3621 
469 1 66.9 57.3575 17.2971 
470 1 68.777 60.6084 17.2971 
471 1 68.777 62.7757 20.3621 
472 1 66.9 59.5248 20.3621 
473 1 70.6539 57.3575 17.2971 
474 1 72.5308 60.6084 17.2971 
475 1 72.5308 62.7757 20.3621 
476 1 70.6539 59.5248 20.3621 
477 1 10.5922 63.8594 17.2971 
478 1 12.4692 67.1103 17.2971 
479 1 12.4692 69.2776 20.3621 
480 1 10.5922 66.0267 20.3621 
481 1 14.3461 63.8594 17.2971 
482 1 16.223 67.1103 17.2971 
483 1 16.223 69.2776 20.3621 
484 1 14.3461 66.0267 20.3621 
485 1 18.1 63.8594 17.2971 
486 1 19.9769 67.1103 17.2971 
487 1 19.9769 69.2776 20.3621 
488 1 18.1 66.0267 20.3621 
489 1 21.8538 63.8594 17.2971 
490 1 23.7307 67.1103 17.2971 
491 1 23.7307 69.2776 20.3621 
492 1 21.8538 66.0267 20.3621 
493 1 25.6077 63.8594 17.2971 
494 1 27.4846 67.1103 17.2971 
495 1 27.4846 69.2776 20.3621 
496 1 25.6077 66.0267 20.3621 
497 1 29.3615 63.8594 17.2971 
498 1 31.2384 67.1103 17.2971 
499 1 31.2384 69.2776 20.3621 
500 1 29.3615 66.0267 20.3621 
501 1 33.1154 63.8594 17.2971 
502 1 34.9923 67.1103 17.2971 
503 1 34.9923 69.2776 20.3621 
504 1 33.1154 66.0267 20.3621 
505 1 36.8692 63.8594 17.2971 
506 1 38.7461 67.1103 17.2971 
507 1 38.7461 69.2776 20.3621 
508 1 36.8692 66.0267 20.3621 
509 1 40.6231 63.8594 17.2971 
510 1 42.5 67.1103 17.2971 
511 1 42.5 69.2776 20.3621 
512 1 40.6231 66.0267 20.3621 
513 1 44.3769 63.8594 17.2971 
514 1 46.2539 67.1103 17.2971 
515 1 46.2539 69.2776 20.3621 
516 1 44.3769 66.0267 20.3621 
517 1 48.1308 63.8594 17.2971 
518 1 50.0077 67.1103 17.2971 
519 1 50.0077 69.2776 20.3621 
520 1 48.1308 66.0267 20.3621 
521 1 51.8846 63.8594 17.2971 
522 1 53.7616 67.1103 17.2971 
523 1 53.7616 69.2776 20.3621 
524 1 51.8846 66.0267 20.3621 
525 1 55.6385 63.8594 17.2971 
526 1 57.5154 67.1103 17.2971 
527 1 57.5154 69.2776 20.3621 
528 1 55.6385 66.0267 20.3621 
529 1 59.3923 63.8594 17.2971 
530 1 61.2693 67.1103 17.2971 
531 1 61.2693 69.2776 20.3621 
532 1 59.3923 66.0267 20.3621 
533 1 63.1462 63.8594 17.2971 
534 1 65.0231 67.1103 17.2971 
535 1 65.0231 69.2776 20.3621 
536 1 63.1462 66.0267 20.3621 
537 1 66.9 63.8594 17.2971 
538 1 68.777 67.1103 17.2971 
539 1 68.777 69.2776 20.3621 
540 1 66.9 66.0267 20.3621 
541 1 70.6539 63.8594 17.2971 
542 1 72.5308 67.1103 17.2971 
543 1 72.5308 69.2776 20.3621 
544 1 70.6539 66.0267 20.3621 
545 1 10.5922 70.3612 17.2971 
546 1 12.4692 73.6122 17.2971 
547 1 12.4692 75.7794 20.3621 
548 1 10.5922 72.5285 20.3621 
549 1 14.3461 70.3612 17.2971 
550 1 16.223 73.6122 17.2971 
551 1 16.223 75.7794 20.3621 
552 1 14.3461 72.5285 20.3621 
553 1 18.1 70.3612 17.2971 
554 1 19.9769 73.6122 17.2971 
555 1 19.9769 75.7794 20.3621 
556 1 18.1 72.5285 20.3621 
557 1 21.8538 70.3612 17.2971 
558 1 23.7307 73.6122 17.2971 
559 1 23.7307 75.7794 20.3621 
560 1 21.8538 72.5285 20.3621 
561 1 25.6077 70.3612 17.2971 
562 1 27.4846 73.6122 17.2971 
563 1 27.4846 75.7794 20.3621 
564 1 25.6077 72.5285 20.3621 
565 1 29.3615 70.3612 17.2971 
566 1 31.2384 73.6122 17.2971 
567 1 31.2384 75.7794 20.3621 
568 1 29.3615 72.5285 20.3621 
569 1 33.1154 70.3612 17.2971 
570 1 34.9923 73.6122 17.2971 
571 1 34.9923 75.7794 20.3621 
572 1 33.1154 72.5285 20.3621 
573 1 36.8692 70.3612 17.2971 
574 1 38.7461 73.6122 17.2971 
575 1 38.7461 75.7794 20.3621 
576 1 36.8692 72.5285 20.3621 
577 1 40.6231 70.3612 17.2971 
578 1 42.5 73.6122 17.2971 
579 1 42.5 75.7794 20.3621 
580 1 40.6231 72.5285 20.3621 
581 1 44.3769 70.3612 17.2971 
582 1 46.2539 73.6122 17.2971 
583 1 46.2539 75.7794 20.3621 
584 1 44.3769 72.5285 20.3621 
585 1 48.1308 70.3612 17.2971 
586 1 50.0077 73.6122 17.2971 
587 1 50.0077 75.7794 20.3621 
588 1 48.1308 72.5285 20.3621 
589 1 51.8846 70.3612 17.2971 
590 1 53.7616 73.6122 17.2971 
591 1 53.7616 75.7794 20.3621 
592 1 51.8846 72.5285 20.3621 
593 1 55.6385 70.3612 17.2971 
594 1 57.5154 73.6122 17.2971 
595 1 57.5154 75.7794 20.3621 
596 1 55.6385 72.5285 20.3621 
597 1 59.3923 70.3612 17.2971 
598 1 61.2693 73.6122 17.2971 
599 1 61.2693 75.7794 20.3621 
600 1 59.3923 72.5285 20.3621 
601 1 63.1462 70.3612 17.2971 
602 1 65.0231 73.6122 17.2971 
603 1 65.0231 75.7794 20.3621 
604 1 63.1462 72.5285 20.3621 
605 1 66.9 70.3612 17.2971 
606 1 68.777 73.6122 17.2971 
607 1 68.777 75.7794 20.3621 
608 1 66.9 72.5285 20.3621 
609 1 70.6539 70.3612 17.2971 
610 1 72.5308 73.6122 17.2971 
611 1 72.5308 75.7794 20.3621 
612 1 70.6539 72.5285 20.3621 
613 1 10.5922 76.8631 17.2971 
614 1 12.4692 80.114 17.2971 
615 1 12.4692 82.2813 20.3621 
616 1 10.5922 79.0304 20.3621 
617 1 14.3461 76.8631 17.2971 
618 1 16.223 80.114 17.2971 
619 1 16.223 82.2813 20.3621 
620 1 14.3461 79.0304 20.3621 
621 1 18.1 76.8631 17.2971 
622 1 19.9769 80.114 17.2971 
623 1 19.9769 82.2813 20.3621 
624 1 18.1 79.0304 20.3621 
625 1 21.8538 76.8631 17.2971 
626 1 23.7307 80.114 17.2971 
627 1 23.7307 82.2813 20.3621 
628 1 21.8538 79.0304 20.3621 
629 1 25.6077 76.8631 17.2971 
630 1 27.4846 80.114 17.2971 
631 1 27.4846 82.2813 20.3621 
632 1 25.6077 79.0304 20.3621 
633 1 29.3615 76.8631 17.2971 
634 1 31.2384 80.114 17.2971 
635 1 31.2384 82.2813 20.3621 
636 1 29.3615 79.0304 20.3621 
637 1 33.1154 76.8631 17.2971 
638 1 34.9923 80.114 17.2971 
639 1 34.9923 82.2813 20.3621 
640 1 33.1154 79.0304 20.3621 
641 1 36.8692 76.8631 17.2971 
642 1 38.7461 80.114 17.2971 
643 1 38.7461 82.2813 20.3621 
644 1 36.8692 79.0304 20.3621 
645 1 40.6231 76.8631 17.2971 
646 1 42.5 80.114 17.2971 
647 1 42.5 82.2813 20.3621 
648 1 40.6231 79.0304 20.3621 
649 1 44.3769 76.8631 17.2971 
650 1 46.2539 80.114 17.2971 
651 1 46.2539 82.2813 20.3621 
652 1 44.3769 79.0304 20.3621 
653 1 48.1308 76.8631 17.2971 
654 1 50.0077 80.114 17.2971 
655 1 50.0077 82.2813 20.3621 
656 1 48.1308 79.0304 20.3621 
657 1 51.8846 76.8631 17.2971 
658 1 53.7616 80.114 17.2971 
659 1 53.7616 82.2813 20.3621 
660 1 51.8846 79.0304 20.3621 
661 1 55.6385 76.8631 17.2971 
662 1 57.5154 80.114 17.2971 
663 1 57.5154 82.2813 20.3621 
664 1 55.6385 79.0304 20.3621 
665 1 59.3923 76.8631 17.2971 
666 1 61.2693 80.114 17.2971 
667 1 61.2693 82.2813 20.3621 
668 1 59.3923 79.0304 20.3621 
669 1 63.1462 76.8631 17.2971 
670 1 65.0231 80.114 17.2971 
671 1 65.0231 82.2813 20.3621 
672 1 63.1462 79.0304 20.3621 
673 1 66.9 76.8631 17.2971 
674 1 68.777 80.114 17.2971 
675 1 68.777 82.2813 20.3621 
676 1 66.9 79.0304 20.3621 
677 1 70.6539 76.8631 17.2971 
678 1 72.5308 80.114 17.2971 
679 1 72.5308 82.2813 20.3621 
680 1 70.6539 79.0304 20.3621 
681 1 10.5922 83.365 17.2971 
682 1 12.4692 86.6159 17.2971 
683 1 12.4692 88.7832 20.3621 
684 1 10.5922 85.5322 20.3621 
685 1 14.3461 83.365 17.2971 
686 1 16.223 86.6159 17.2971 
687 1 16.223 88.7832 20.3621 
688 1 14.3461 85.5322 20.3621 
689 1 18.1 83.365 17.2971 
690 1 19.9769 86.6159 17.2971 
691 1 19.9769 88.7832 20.3621 
692 1 18.1 85.5322 20.3621 
693 1 21.8538 83.365 17.2971 
694 1 23.7307 86.6159 17.2971 
695 1 23.7307 88.7832 20.3621 
696 1 21.8538 85.5322 20.3621 
697 1 25.6077 83.365 17.2971 
698 1 27.4846 86.6159 17.2971 
699 1 27.4846 88.7832 20.3621 
700 1 25.6077 85.5322 20.3621 
701 1 29.3615 83.365 17.2971 
702 1 31.2384 86.6159 17.2971 
703 1 31.2384 88.7832 20.3621 
704 1 29.3615 85.5322 20.3621 
705 1 33.1154 83.365 17.2971 
706 1 34.9923 86.6159 17.2971 
707 1 34.9923 88.7832 20.3621 
708 1 33.1154 85.5322 20.3621 
709 1 36.8692 83.365 17.2971 
710 1 38.7461 86.6159 17.2971 
711 1 38.7461 88.7832 20.3621 
712 1 36.8692 85.5322 20.3621 
713 1 40.6231 83.365 17.2971 
714 1 42.5 86.6159 17.2971 
715 1 42.5 88.7832 20.3621 
716 1 40.6231 85.5322 20.3621 
717 1 44.3769 83.365 17.2971 
718 1 46.2539 86.6159 17.2971 
719 1 46.2539 88.7832 20.3621 
720 1 44.3769 85.5322 20.3621 
721 1 48.1308 83.365 17.2971 
722 1 50.0077 86.6159 17.2971 
723 1 50.0077 88.7832 20.3621 
724 1 48.1308 85.5322 20.3621 
725 1 51.8846 83.365 17.2971 
726 1 53.7616 86.6159 17.2971 
727 1 53.7616 88.7832 20.3621 
728 1 51.8846 85.5322 20.3621 
729 1 55.6385 83.365 17.2971 
730 1 57.5154 86.6159 17.2971 
731 1 57.5154 88.7832 20.3621 
732 1 55.6385 85.5322 20.3621 
733 1 59.3923 83.365 17.2971 
734 1 61.2693 86.6159 17.2971 
735 1 61.2693 88.7832 20.3621 
736 1 59.3923 85.5322 20.3621 
737 1 63.1462 83.365 17.2971 
738 1 65.0231 86.6159 17.2971 
739 1 65.0231 88.7832 20.3621 
740 1 63.1462 85.5322 20.3621 
741 1 66.9 83.365 17.2971 
742 1 68.777 86.6159 17.2971 
743 1 68.777 88.7832 20.3621 
744 1 66.9 85.5322 20.3621 
745 1 70.6539 83.365 17.2971 
746 1 72.5308 86.6159 17.2971 
747 1 72.5308 88.7832 20.3621 
748 1 70.6539 85.5322 20.3621 
749 1 10.5922 89.8668 17.2971 
750 1 12.4692 93.1178 17.2971 
751 1 12.4692 95.285 20.3621 
752 1 10.5922 92.0341 20.3621 
753 1 14.3461 89.8668 17.2971 
754 1 16.223 93.1178 17.2971 
755 1 16.223 95.285 20.3621 
756 1 14.3461 92.0341 20.3621 
757 1 18.1 89.8668 17.2971 
758 1 19.9769 93.1178 17.2971 
759 1 19.9769 95.285 20.3621 
760 1 18.1 92.0341 20.3621 
761 1 21.8538 89.8668 17.2971 
762 1 23.7307 93.1178 17.2971 
763 1 23.7307 95.285 20.3621 
764 1 21.8538 92.0341 20.3621 
765 1 25.6077 89.8668 17.2971 
766 1 27.4846 93.1178 17.2971 
767 1 27.4846 95.285 20.3621 
768 1 25.6077 92.0341 20.3621 
769 1 29.3615 89.8668 17.2971 
770 1 31.2384 93.1178 17.2971 
771 1 31.2384 95.285 20.3621 
772 1 29.3615 92.0341 20.3621 
773 1 33.1154 89.8668 17.2971 
774 1 34.9923 93.1178 17.2971 
775 1 34.9923 95.285 20.3621 
776 1 33.1154 92.0341 20.3621 
777 1 36.8692 89.8668 17.2971 
778 1 38.7461 93.1178 17.2971 
779 1 38.7461 95.285 20.3621 
780 1 36.8692 92.0341 20.3621 
781 1 40.6231 89.8668 17.2971 
782 1 42.5 93.1178 17.2971 
783 1 42.5 95.285 20.3621 
784 1 40.6231 92.0341 20.3621 
785 1 44.3769 89.8668 17.2971 
786 1 46.2539 93.1178 17.2971 
787 1 46.2539 95.285 20.3621 
788 1 44.3769 92.0341 20.3621 
789 1 48.1308 89.8668 17.2971 
790 1 50.0077 93.1178 17.2971 
791 1 50.0077 95.285 20.3621 
792 1 48.1308 92.0341 20.3621 
793 1 51.8846 89.8668 17.2971 
794 1 53.7616 93.1178 17.2971 
795 1 53.7616 95.285 20.3621 
796 1 51.8846 92.0341 20.3621 
797 1 55.6385 89.8668 17.2971 
798 1 57.5154 93.1178 17.2971 
799 1 57.5154 95.285 20.3621 
800 1 55.6385 92.0341 20.3621 
801 1 59.3923 89.8668 17.2971 
802 1 61.2693 93.1178 17.2971 
803 1 61.2693 95.285 20.3621 
804 1 59.3923 92.0341 20.3621 
805 1 63.1462 89.8668 17.2971 
806 1 65.0231 93.1178 17.2971 
807 1 65.0231 95.285 20.3621 
808 1 63.1462 92.0341 20.3621 
809 1 66.9 89.8668 17.2971 
810 1 68.777 93.1178 17.2971 
811 1 68.777 95.285 20.3621 
812 1 66.9 92.0341 20.3621 
813 1 70.6539 89.8668 17.2971 
814 1 72.5308 93.1178 17.2971 
815 1 72.5308 95.285 20.3621 
816 1 70.6539 92.0341 20.3621 
817 1 10.5922 96.3687 17.2971 
818 1 12.4692 99.6196 17.2971 
819 1 12.4692 101.787 20.3621 
820 1 10.5922 98.536 20.3621 
821 1 14.3461 96.3687 17.2971 
822 1 16.223 99.6196 17.2971 
823 1 16.223 101.787 20.3621 
824 1 14.3461 98.536 20.3621 
825 1 18.1 96.3687 17.2971 
826 1 19.9769 99.6196 17.2971 
827 1 19.9769 101.787 20.3621 
828 1 18.1 98.536 20.3621 
829 1 21.8538 96.3687 17.2971 
830 1 23.7307 99.6196 17.2971 
831 1 23.7307 101.787 20.3621 
832 1 21.8538 98.536 20.3621 
833 1 25.6077 96.3687 17.2971 
834 1 27.4846 99.6196 17.2971 
835 1 27.4846 101.787 20.3621 
836 1 25.6077 98.536 20.3621 
837 1 29.3615 96.3687 17.2971 
838 1 31.2384 99.6196 17.2971 
839 1 31.2384 101.787 20.3621 
840 1 29.3615 98.536 20.3621 
841 1 33.1154 96.3687 17.2971 
842 1 34.9923 99.6196 17.2971 
843 1 34.9923 101.787 20.3621 
844 1 33.1154 98.536 20.3621 
845 1 36.8692 96.3687 17.2971 
846 1 38.7461 99.6196 17.2971 
847 1 38.7461 101.787 20.3621 
848 1 36.8692 98.536 20.3621 
849 1 40.6231 96.3687 17.2971 
850 1 42.5 99.6196 17.2971 
851 1 42.5 101.787 20.3621 
852 1 40.6231 98.536 20.3621 
853 1 44.3769 96.3687 17.2971 
854 1 46.2539 99.6196 17.2971 
855 1 46.2539 101.787 20.3621 
856 1 44.3769 98.536 20.3621 
857 1 48.1308 96.3687 17.2971 
858 1 50.0077 99.6196 17.2971 
859 1 50.0077 101.787 20.3621 
860 1 48.1308 98.536 20.3621 
861 1 51.8846 96.3687 17.2971 
862 1 53.7616 99.6196 17.2971 
863 1 53.7616 101.787 20.3621 
864 1 51.8846 98.536 20.3621 
865 1 55.6385 96.3687 17.2971 
866 1 57.5154 99.6196 17.2971 
867 1 57.5154 101.787 20.3621 
868 1 55.6385 98.536 20.3621 
869 1 59.3923 96.3687 17.2971 
870 1 61.2693 99.6196 17.2971 
871 1 61.2693 101.787 20.3621 
872 1 59.3923 98.536 20.3621 
873 1 63.1462 96.3687 17.2971 
874 1 65.0231 99.6196 17.2971 
875 1 65.0231 101.787 20.3621 
876 1 63.1462 98.536 20.3621 
877 1 66.9 96.3687 17.2971 
878 1 68.777 99.6196 17.2971 
879 1 68.777 101.787 20.3621 
880 1 66.9 98.536 20.3621 
881 1 70.6539 96.3687 17.2971 
882 1 72.5308 99.6196 17.2971 
883 1 72.5308 101.787 20.3621 
884 1 70.6539 98.536 20.3621 
885 1 10.5922 102.871 17.2971 
886 1 12.4692 106.121 17.2971 
887 1 12.4692 108.289 20.3621 
888 1 10.5922 105.038 20.3621 
889 1 14.3461 102.871 17.2971 
890 1 16.223 106.121 17.2971 
891 1 16.223 108.289 20.3621 
892 1 14.3461 105.038 20.3621 
893 1 18.1 102.871 17.2971 
894 1 19.9769 106.121 17.2971 
895 1 19.9769 108.289 20.3621 
896 1 18.1 105.038 20.3621 
897 1 21.8538 102.871 17.2971 
898 1 23.7307 106.121 17.2971 
899 1 23.7307 108.289 20.3621 
900 1 21.8538 105.038 20.3621 
901 1 25.6077 102.871 17.2971 
902 1 27.4846 106.121 17.2971 
903 1 27.4846 108.289 20.3621 
904 1 25.6077 105.038 20.3621 
905 1 29.3615 102.871 17.2971 
906 1 31.2384 106.121 17.2971 
907 1 31.2384 108.289 20.3621 
908 1 29.3615 105.038 20.3621 
909 1 33.1154 102.871 17.2971 
910 1 34.9923 106.121 17.2971 
911 1 34.9923 108.289 20.3621 
912 1 33.1154 105.038 20.3621 
913 1 36.8692 102.871 17.2971 
914 1 38.7461 106.121 17.2971 
915 1 38.7461 108.289 20.3621 
916 1 36.8692 105.038 20.3621 
917 1 40.6231 102.871 17.2971 
918 1 42.5 106.121 17.2971 
919 1 42.5 108.289 20.3621 
920 1 40.6231 105.038 20.3621 
921 1 44.3769 102.871 17.2971 
922 1 46.2539 106.121 17.2971 
923 1 46.2539 108.289 20.3621 
924 1 44.3769 105.038 20.3621 
925 1 48.1308 102.871 17.2971 
926 1 50.0077 106.121 17.2971 
927 1 50.0077 108.289 20.3621 
928 1 48.1308 105.038 20.3621 
929 1 51.8846 102.871 17.2971 
930 1 53.7616 106.121 17.2971 
931 1 53.7616 108.289 20.3621 
932 1 51.8846 105.038 20.3621 
933 1 55.6385 102.871 17.2971 
934 1 57.5154 106.121 17.2971 
935 1 57.5154 108.289 20.3621 
936 1 55.6385 105.038 20.3621 
937 1 59.3923 102.871 17.2971 
938 1 61.2693 106.121 17.2971 
939 1 61.2693 108.289 20.3621 
940 1 59.3923 105.038 20.3621 
941 1 63.1462 102.871 17.2971 
942 1 65.0231 106.121 17.2971 
943 1 65.0231 108.289 20.3621 
944 1 63.1462 105.038 20.3621 
945 1 66.9 102.871 17.2971 
946 1 68.777 106.121 17.2971 
947 1 68.777 108.289 20.3621 
948 1 66.9 105.038 20.3621 
949 1 70.6539 102.871 17.2971 
950 1 72.5308 106.121 17.2971 
951 1 72.5308 108.289 20.3621 
952 1 70.6539 105.038 20.3621 
953 1 10.5922 109.372 17.2971 
954 1 12.4692 112.623 17.2971 
955 1 12.4692 114.791 20.3621 
956 1 10.5922 111.54 20.3621 
957 1 14.3461 109.372 17.2971 
958 1 16.223 112.623 17.2971 
959 1 16.223 114.791 20.3621 
960 1 14.3461 111.54 20.3621 
961 1 18.1 109.372 17.2971 
962 1 19.9769 112.623 17.2971 
963 1 19.9769 114.791 20.3621 
964 1 18.1 111.54 20.3621 
965 1 21.8538 109.372 17.2971 
966 1 23.7307 112.623 17.2971 
967 1 23.7307 114.791 20.3621 
968 1 21.8538 111.54 20.3621 
969 1 25.6077 109.372 17.2971 
970 1 27.4846 112.623 17.2971 
971 1 27.4846 114.791 20.3621 
972 1 25.6077 111.54 20.3621 
973 1 29.3615 109.372 17.2971 
974 1 31.2384 112.623 17.2971 
975 1 31.2384 114.791 20.3621 
976 1 29.3615 111.54 20.3621 
977 1 33.1154 109.372 17.2971 
978 1 34.9923 112.623 17.2971 