ITEM: TIMESTEP
75
ITEM: NUMBER OF ATOMS
9826
ITEM: BOX BOUNDS pp pp pp
1.5150942326012025e+01 6.9849057673987602e+01
1.5150942326012025e+01 6.9849057673987602e+01
1.5150942326012025e+01 6.9849057673987602e+01
ITEM: ATOMS id type xu yu zu 
1 2 15.1509 15.1509 15.1509 
2 2 16.7597 16.7597 16.7597 
3 2 18.3685 15.1509 15.1509 
4 2 19.9772 16.7597 16.7597 
5 2 21.586 15.1509 15.1509 
6 2 23.1948 16.7597 16.7597 
7 2 24.8036 15.1509 15.1509 
8 2 26.4123 16.7597 16.7597 
9 2 28.0211 15.1509 15.1509 
10 2 29.6299 16.7597 16.7597 
11 2 31.2386 15.1509 15.1509 
12 2 32.8474 16.7597 16.7597 
13 2 34.4562 15.1509 15.1509 
14 2 36.0649 16.7597 16.7597 
15 2 37.6737 15.1509 15.1509 
16 2 39.2825 16.7597 16.7597 
17 2 40.8912 15.1509 15.1509 
18 2 42.5 16.7597 16.7597 
19 2 44.1088 15.1509 15.1509 
20 2 45.7175 16.7597 16.7597 
21 2 47.3263 15.1509 15.1509 
22 2 48.9351 16.7597 16.7597 
23 2 50.5438 15.1509 15.1509 
24 2 52.1526 16.7597 16.7597 
25 2 53.7614 15.1509 15.1509 
26 2 55.3701 16.7597 16.7597 
27 2 56.9789 15.1509 15.1509 
28 2 58.5877 16.7597 16.7597 
29 2 60.1964 15.1509 15.1509 
30 2 61.8052 16.7597 16.7597 
31 2 63.414 15.1509 15.1509 
32 2 65.0228 16.7597 16.7597 
33 2 66.6315 15.1509 15.1509 
34 2 68.2403 16.7597 16.7597 
35 2 15.1509 18.3685 15.1509 
36 2 16.7597 19.9772 16.7597 
37 2 18.3685 18.3685 15.1509 
38 2 19.9772 19.9772 16.7597 
39 2 21.586 18.3685 15.1509 
40 2 23.1948 19.9772 16.7597 
41 2 24.8036 18.3685 15.1509 
42 2 26.4123 19.9772 16.7597 
43 2 28.0211 18.3685 15.1509 
44 2 29.6299 19.9772 16.7597 
45 2 31.2386 18.3685 15.1509 
46 2 32.8474 19.9772 16.7597 
47 2 34.4562 18.3685 15.1509 
48 2 36.0649 19.9772 16.7597 
49 2 37.6737 18.3685 15.1509 
50 2 39.2825 19.9772 16.7597 
51 2 40.8912 18.3685 15.1509 
52 2 42.5 19.9772 16.7597 
53 2 44.1088 18.3685 15.1509 
54 2 45.7175 19.9772 16.7597 
55 2 47.3263 18.3685 15.1509 
56 2 48.9351 19.9772 16.7597 
57 2 50.5438 18.3685 15.1509 
58 2 52.1526 19.9772 16.7597 
59 2 53.7614 18.3685 15.1509 
60 2 55.3701 19.9772 16.7597 
61 2 56.9789 18.3685 15.1509 
62 2 58.5877 19.9772 16.7597 
63 2 60.1964 18.3685 15.1509 
64 2 61.8052 19.9772 16.7597 
65 2 63.414 18.3685 15.1509 
66 2 65.0228 19.9772 16.7597 
67 2 66.6315 18.3685 15.1509 
68 2 68.2403 19.9772 16.7597 
69 2 15.1509 21.586 15.1509 
70 2 16.7597 23.1948 16.7597 
71 2 18.3685 21.586 15.1509 
72 2 19.9772 23.1948 16.7597 
73 2 21.586 21.586 15.1509 
74 2 23.1948 23.1948 16.7597 
75 2 24.8036 21.586 15.1509 
76 2 26.4123 23.1948 16.7597 
77 2 28.0211 21.586 15.1509 
78 2 29.6299 23.1948 16.7597 
79 2 31.2386 21.586 15.1509 
80 2 32.8474 23.1948 16.7597 
81 2 34.4562 21.586 15.1509 
82 2 36.0649 23.1948 16.7597 
83 2 37.6737 21.586 15.1509 
84 2 39.2825 23.1948 16.7597 
85 2 40.8912 21.586 15.1509 
86 2 42.5 23.1948 16.7597 
87 2 44.1088 21.586 15.1509 
88 2 45.7175 23.1948 16.7597 
89 2 47.3263 21.586 15.1509 
90 2 48.9351 23.1948 16.7597 
91 2 50.5438 21.586 15.1509 
92 2 52.1526 23.1948 16.7597 
93 2 53.7614 21.586 15.1509 
94 2 55.3701 23.1948 16.7597 
95 2 56.9789 21.586 15.1509 
96 2 58.5877 23.1948 16.7597 
97 2 60.1964 21.586 15.1509 
98 2 61.8052 23.1948 16.7597 
99 2 63.414 21.586 15.1509 
100 2 65.0228 23.1948 16.7597 
101 2 66.6315 21.586 15.1509 
102 2 68.2403 23.1948 16.7597 
103 2 15.1509 24.8036 15.1509 
104 2 16.7597 26.4123 16.7597 
105 2 18.3685 24.8036 15.1509 
106 2 19.9772 26.4123 16.7597 
107 2 21.586 24.8036 15.1509 
108 2 23.1948 26.4123 16.7597 
109 2 24.8036 24.8036 15.1509 
110 2 26.4123 26.4123 16.7597 
111 2 28.0211 24.8036 15.1509 
112 2 29.6299 26.4123 16.7597 
113 2 31.2386 24.8036 15.1509 
114 2 32.8474 26.4123 16.7597 
115 2 34.4562 24.8036 15.1509 
116 2 36.0649 26.4123 16.7597 
117 2 37.6737 24.8036 15.1509 
118 2 39.2825 26.4123 16.7597 
119 2 40.8912 24.8036 15.1509 
120 2 42.5 26.4123 16.7597 
121 2 44.1088 24.8036 15.1509 
122 2 45.7175 26.4123 16.7597 
123 2 47.3263 24.8036 15.1509 
124 2 48.9351 26.4123 16.7597 
125 2 50.5438 24.8036 15.1509 
126 2 52.1526 26.4123 16.7597 
127 2 53.7614 24.8036 15.1509 
128 2 55.3701 26.4123 16.7597 
129 2 56.9789 24.8036 15.1509 
130 2 58.5877 26.4123 16.7597 
131 2 60.1964 24.8036 15.1509 
132 2 61.8052 26.4123 16.7597 
133 2 63.414 24.8036 15.1509 
134 2 65.0228 26.4123 16.7597 
135 2 66.6315 24.8036 15.1509 
136 2 68.2403 26.4123 16.7597 
137 2 15.1509 28.0211 15.1509 
138 2 16.7597 29.6299 16.7597 
139 2 18.3685 28.0211 15.1509 
140 2 19.9772 29.6299 16.7597 
141 2 21.586 28.0211 15.1509 
142 2 23.1948 29.6299 16.7597 
143 2 24.8036 28.0211 15.1509 
144 2 26.4123 29.6299 16.7597 
145 2 28.0211 28.0211 15.1509 
146 2 29.6299 29.6299 16.7597 
147 2 31.2386 28.0211 15.1509 
148 2 32.8474 29.6299 16.7597 
149 2 34.4562 28.0211 15.1509 
150 2 36.0649 29.6299 16.7597 
151 2 37.6737 28.0211 15.1509 
152 2 39.2825 29.6299 16.7597 
153 2 40.8912 28.0211 15.1509 
154 2 42.5 29.6299 16.7597 
155 2 44.1088 28.0211 15.1509 
156 2 45.7175 29.6299 16.7597 
157 2 47.3263 28.0211 15.1509 
158 2 48.9351 29.6299 16.7597 
159 2 50.5438 28.0211 15.1509 
160 2 52.1526 29.6299 16.7597 
161 2 53.7614 28.0211 15.1509 
162 2 55.3701 29.6299 16.7597 
163 2 56.9789 28.0211 15.1509 
164 2 58.5877 29.6299 16.7597 
165 2 60.1964 28.0211 15.1509 
166 2 61.8052 29.6299 16.7597 
167 2 63.414 28.0211 15.1509 
168 2 65.0228 29.6299 16.7597 
169 2 66.6315 28.0211 15.1509 
170 2 68.2403 29.6299 16.7597 
171 2 15.1509 31.2386 15.1509 
172 2 16.7597 32.8474 16.7597 
173 2 18.3685 31.2386 15.1509 
174 2 19.9772 32.8474 16.7597 
175 2 21.586 31.2386 15.1509 
176 2 23.1948 32.8474 16.7597 
177 2 24.8036 31.2386 15.1509 
178 2 26.4123 32.8474 16.7597 
179 2 28.0211 31.2386 15.1509 
180 2 29.6299 32.8474 16.7597 
181 2 31.2386 31.2386 15.1509 
182 2 32.8474 32.8474 16.7597 
183 2 34.4562 31.2386 15.1509 
184 2 36.0649 32.8474 16.7597 
185 2 37.6737 31.2386 15.1509 
186 2 39.2825 32.8474 16.7597 
187 2 40.8912 31.2386 15.1509 
188 2 42.5 32.8474 16.7597 
189 2 44.1088 31.2386 15.1509 
190 2 45.7175 32.8474 16.7597 
191 2 47.3263 31.2386 15.1509 
192 2 48.9351 32.8474 16.7597 
193 2 50.5438 31.2386 15.1509 
194 2 52.1526 32.8474 16.7597 
195 2 53.7614 31.2386 15.1509 
196 2 55.3701 32.8474 16.7597 
197 2 56.9789 31.2386 15.1509 
198 2 58.5877 32.8474 16.7597 
199 2 60.1964 31.2386 15.1509 
200 2 61.8052 32.8474 16.7597 
201 2 63.414 31.2386 15.1509 
202 2 65.0228 32.8474 16.7597 
203 2 66.6315 31.2386 15.1509 
204 2 68.2403 32.8474 16.7597 
205 2 15.1509 34.4562 15.1509 
206 2 16.7597 36.0649 16.7597 
207 2 18.3685 34.4562 15.1509 
208 2 19.9772 36.0649 16.7597 
209 2 21.586 34.4562 15.1509 
210 2 23.1948 36.0649 16.7597 
211 2 24.8036 34.4562 15.1509 
212 2 26.4123 36.0649 16.7597 
213 2 28.0211 34.4562 15.1509 
214 2 29.6299 36.0649 16.7597 
215 2 31.2386 34.4562 15.1509 
216 2 32.8474 36.0649 16.7597 
217 2 34.4562 34.4562 15.1509 
218 2 36.0649 36.0649 16.7597 
219 2 37.6737 34.4562 15.1509 
220 2 39.2825 36.0649 16.7597 
221 2 40.8912 34.4562 15.1509 
222 2 42.5 36.0649 16.7597 
223 2 44.1088 34.4562 15.1509 
224 2 45.7175 36.0649 16.7597 
225 2 47.3263 34.4562 15.1509 
226 2 48.9351 36.0649 16.7597 
227 2 50.5438 34.4562 15.1509 
228 2 52.1526 36.0649 16.7597 
229 2 53.7614 34.4562 15.1509 
230 2 55.3701 36.0649 16.7597 
231 2 56.9789 34.4562 15.1509 
232 2 58.5877 36.0649 16.7597 
233 2 60.1964 34.4562 15.1509 
234 2 61.8052 36.0649 16.7597 
235 2 63.414 34.4562 15.1509 
236 2 65.0228 36.0649 16.7597 
237 2 66.6315 34.4562 15.1509 
238 2 68.2403 36.0649 16.7597 
239 2 15.1509 37.6737 15.1509 
240 2 16.7597 39.2825 16.7597 
241 2 18.3685 37.6737 15.1509 
242 2 19.9772 39.2825 16.7597 
243 2 21.586 37.6737 15.1509 
244 2 23.1948 39.2825 16.7597 
245 2 24.8036 37.6737 15.1509 
246 2 26.4123 39.2825 16.7597 
247 2 28.0211 37.6737 15.1509 
248 2 29.6299 39.2825 16.7597 
249 2 31.2386 37.6737 15.1509 
250 2 32.8474 39.2825 16.7597 
251 2 34.4562 37.6737 15.1509 
252 2 36.0649 39.2825 16.7597 
253 2 37.6737 37.6737 15.1509 
254 2 39.2825 39.2825 16.7597 
255 2 40.8912 37.6737 15.1509 
256 2 42.5 39.2825 16.7597 
257 2 44.1088 37.6737 15.1509 
258 2 45.7175 39.2825 16.7597 
259 2 47.3263 37.6737 15.1509 
260 2 48.9351 39.2825 16.7597 
261 2 50.5438 37.6737 15.1509 
262 2 52.1526 39.2825 16.7597 
263 2 53.7614 37.6737 15.1509 
264 2 55.3701 39.2825 16.7597 
265 2 56.9789 37.6737 15.1509 
266 2 58.5877 39.2825 16.7597 
267 2 60.1964 37.6737 15.1509 
268 2 61.8052 39.2825 16.7597 
269 2 63.414 37.6737 15.1509 
270 2 65.0228 39.2825 16.7597 
271 2 66.6315 37.6737 15.1509 
272 2 68.2403 39.2825 16.7597 
273 2 15.1509 40.8912 15.1509 
274 2 16.7597 42.5 16.7597 
275 2 18.3685 40.8912 15.1509 
276 2 19.9772 42.5 16.7597 
277 2 21.586 40.8912 15.1509 
278 2 23.1948 42.5 16.7597 
279 2 24.8036 40.8912 15.1509 
280 2 26.4123 42.5 16.7597 
281 2 28.0211 40.8912 15.1509 
282 2 29.6299 42.5 16.7597 
283 2 31.2386 40.8912 15.1509 
284 2 32.8474 42.5 16.7597 
285 2 34.4562 40.8912 15.1509 
286 2 36.0649 42.5 16.7597 
287 2 37.6737 40.8912 15.1509 
288 2 39.2825 42.5 16.7597 
289 2 40.8912 40.8912 15.1509 
290 2 42.5 42.5 16.7597 
291 2 44.1088 40.8912 15.1509 
292 2 45.7175 42.5 16.7597 
293 2 47.3263 40.8912 15.1509 
294 2 48.9351 42.5 16.7597 
295 2 50.5438 40.8912 15.1509 
296 2 52.1526 42.5 16.7597 
297 2 53.7614 40.8912 15.1509 
298 2 55.3701 42.5 16.7597 
299 2 56.9789 40.8912 15.1509 
300 2 58.5877 42.5 16.7597 
301 2 60.1964 40.8912 15.1509 
302 2 61.8052 42.5 16.7597 
303 2 63.414 40.8912 15.1509 
304 2 65.0228 42.5 16.7597 
305 2 66.6315 40.8912 15.1509 
306 2 68.2403 42.5 16.7597 
307 2 15.1509 44.1088 15.1509 
308 2 16.7597 45.7175 16.7597 
309 2 18.3685 44.1088 15.1509 
310 2 19.9772 45.7175 16.7597 
311 2 21.586 44.1088 15.1509 
312 2 23.1948 45.7175 16.7597 
313 2 24.8036 44.1088 15.1509 
314 2 26.4123 45.7175 16.7597 
315 2 28.0211 44.1088 15.1509 
316 2 29.6299 45.7175 16.7597 
317 2 31.2386 44.1088 15.1509 
318 2 32.8474 45.7175 16.7597 
319 2 34.4562 44.1088 15.1509 
320 2 36.0649 45.7175 16.7597 
321 2 37.6737 44.1088 15.1509 
322 2 39.2825 45.7175 16.7597 
323 2 40.8912 44.1088 15.1509 
324 2 42.5 45.7175 16.7597 
325 2 44.1088 44.1088 15.1509 
326 2 45.7175 45.7175 16.7597 
327 2 47.3263 44.1088 15.1509 
328 2 48.9351 45.7175 16.7597 
329 2 50.5438 44.1088 15.1509 
330 2 52.1526 45.7175 16.7597 
331 2 53.7614 44.1088 15.1509 
332 2 55.3701 45.7175 16.7597 
333 2 56.9789 44.1088 15.1509 
334 2 58.5877 45.7175 16.7597 
335 2 60.1964 44.1088 15.1509 
336 2 61.8052 45.7175 16.7597 
337 2 63.414 44.1088 15.1509 
338 2 65.0228 45.7175 16.7597 
339 2 66.6315 44.1088 15.1509 
340 2 68.2403 45.7175 16.7597 
341 2 15.1509 47.3263 15.1509 
342 2 16.7597 48.9351 16.7597 
343 2 18.3685 47.3263 15.1509 
344 2 19.9772 48.9351 16.7597 
345 2 21.586 47.3263 15.1509 
346 2 23.1948 48.9351 16.7597 
347 2 24.8036 47.3263 15.1509 
348 2 26.4123 48.9351 16.7597 
349 2 28.0211 47.3263 15.1509 
350 2 29.6299 48.9351 16.7597 
351 2 31.2386 47.3263 15.1509 
352 2 32.8474 48.9351 16.7597 
353 2 34.4562 47.3263 15.1509 
354 2 36.0649 48.9351 16.7597 
355 2 37.6737 47.3263 15.1509 
356 2 39.2825 48.9351 16.7597 
357 2 40.8912 47.3263 15.1509 
358 2 42.5 48.9351 16.7597 
359 2 44.1088 47.3263 15.1509 
360 2 45.7175 48.9351 16.7597 
361 2 47.3263 47.3263 15.1509 
362 2 48.9351 48.9351 16.7597 
363 2 50.5438 47.3263 15.1509 
364 2 52.1526 48.9351 16.7597 
365 2 53.7614 47.3263 15.1509 
366 2 55.3701 48.9351 16.7597 
367 2 56.9789 47.3263 15.1509 
368 2 58.5877 48.9351 16.7597 
369 2 60.1964 47.3263 15.1509 
370 2 61.8052 48.9351 16.7597 
371 2 63.414 47.3263 15.1509 
372 2 65.0228 48.9351 16.7597 
373 2 66.6315 47.3263 15.1509 
374 2 68.2403 48.9351 16.7597 
375 2 15.1509 50.5438 15.1509 
376 2 16.7597 52.1526 16.7597 
377 2 18.3685 50.5438 15.1509 
378 2 19.9772 52.1526 16.7597 
379 2 21.586 50.5438 15.1509 
380 2 23.1948 52.1526 16.7597 
381 2 24.8036 50.5438 15.1509 
382 2 26.4123 52.1526 16.7597 
383 2 28.0211 50.5438 15.1509 
384 2 29.6299 52.1526 16.7597 
385 2 31.2386 50.5438 15.1509 
386 2 32.8474 52.1526 16.7597 
387 2 34.4562 50.5438 15.1509 
388 2 36.0649 52.1526 16.7597 
389 2 37.6737 50.5438 15.1509 
390 2 39.2825 52.1526 16.7597 
391 2 40.8912 50.5438 15.1509 
392 2 42.5 52.1526 16.7597 
393 2 44.1088 50.5438 15.1509 
394 2 45.7175 52.1526 16.7597 
395 2 47.3263 50.5438 15.1509 
396 2 48.9351 52.1526 16.7597 
397 2 50.5438 50.5438 15.1509 
398 2 52.1526 52.1526 16.7597 
399 2 53.7614 50.5438 15.1509 
400 2 55.3701 52.1526 16.7597 
401 2 56.9789 50.5438 15.1509 
402 2 58.5877 52.1526 16.7597 
403 2 60.1964 50.5438 15.1509 
404 2 61.8052 52.1526 16.7597 
405 2 63.414 50.5438 15.1509 
406 2 65.0228 52.1526 16.7597 
407 2 66.6315 50.5438 15.1509 
408 2 68.2403 52.1526 16.7597 
409 2 15.1509 53.7614 15.1509 
410 2 16.7597 55.3701 16.7597 
411 2 18.3685 53.7614 15.1509 
412 2 19.9772 55.3701 16.7597 
413 2 21.586 53.7614 15.1509 
414 2 23.1948 55.3701 16.7597 
415 2 24.8036 53.7614 15.1509 
416 2 26.4123 55.3701 16.7597 
417 2 28.0211 53.7614 15.1509 
418 2 29.6299 55.3701 16.7597 
419 2 31.2386 53.7614 15.1509 
420 2 32.8474 55.3701 16.7597 
421 2 34.4562 53.7614 15.1509 
422 2 36.0649 55.3701 16.7597 
423 2 37.6737 53.7614 15.1509 
424 2 39.2825 55.3701 16.7597 
425 2 40.8912 53.7614 15.1509 
426 2 42.5 55.3701 16.7597 
427 2 44.1088 53.7614 15.1509 
428 2 45.7175 55.3701 16.7597 
429 2 47.3263 53.7614 15.1509 
430 2 48.9351 55.3701 16.7597 
431 2 50.5438 53.7614 15.1509 
432 2 52.1526 55.3701 16.7597 
433 2 53.7614 53.7614 15.1509 
434 2 55.3701 55.3701 16.7597 
435 2 56.9789 53.7614 15.1509 
436 2 58.5877 55.3701 16.7597 
437 2 60.1964 53.7614 15.1509 
438 2 61.8052 55.3701 16.7597 
439 2 63.414 53.7614 15.1509 
440 2 65.0228 55.3701 16.7597 
441 2 66.6315 53.7614 15.1509 
442 2 68.2403 55.3701 16.7597 
443 2 15.1509 56.9789 15.1509 
444 2 16.7597 58.5877 16.7597 
445 2 18.3685 56.9789 15.1509 
446 2 19.9772 58.5877 16.7597 
447 2 21.586 56.9789 15.1509 
448 2 23.1948 58.5877 16.7597 
449 2 24.8036 56.9789 15.1509 
450 2 26.4123 58.5877 16.7597 
451 2 28.0211 56.9789 15.1509 
452 2 29.6299 58.5877 16.7597 
453 2 31.2386 56.9789 15.1509 
454 2 32.8474 58.5877 16.7597 
455 2 34.4562 56.9789 15.1509 
456 2 36.0649 58.5877 16.7597 
457 2 37.6737 56.9789 15.1509 
458 2 39.2825 58.5877 16.7597 
459 2 40.8912 56.9789 15.1509 
460 2 42.5 58.5877 16.7597 
461 2 44.1088 56.9789 15.1509 
462 2 45.7175 58.5877 16.7597 
463 2 47.3263 56.9789 15.1509 
464 2 48.9351 58.5877 16.7597 
465 2 50.5438 56.9789 15.1509 
466 2 52.1526 58.5877 16.7597 
467 2 53.7614 56.9789 15.1509 
468 2 55.3701 58.5877 16.7597 
469 2 56.9789 56.9789 15.1509 
470 2 58.5877 58.5877 16.7597 
471 2 60.1964 56.9789 15.1509 
472 2 61.8052 58.5877 16.7597 
473 2 63.414 56.9789 15.1509 
474 2 65.0228 58.5877 16.7597 
475 2 66.6315 56.9789 15.1509 
476 2 68.2403 58.5877 16.7597 
477 2 15.1509 60.1964 15.1509 
478 2 16.7597 61.8052 16.7597 
479 2 18.3685 60.1964 15.1509 
480 2 19.9772 61.8052 16.7597 
481 2 21.586 60.1964 15.1509 
482 2 23.1948 61.8052 16.7597 
483 2 24.8036 60.1964 15.1509 
484 2 26.4123 61.8052 16.7597 
485 2 28.0211 60.1964 15.1509 
486 2 29.6299 61.8052 16.7597 
487 2 31.2386 60.1964 15.1509 
488 2 32.8474 61.8052 16.7597 
489 2 34.4562 60.1964 15.1509 
490 2 36.0649 61.8052 16.7597 
491 2 37.6737 60.1964 15.1509 
492 2 39.2825 61.8052 16.7597 
493 2 40.8912 60.1964 15.1509 
494 2 42.5 61.8052 16.7597 
495 2 44.1088 60.1964 15.1509 
496 2 45.7175 61.8052 16.7597 
497 2 47.3263 60.1964 15.1509 
498 2 48.9351 61.8052 16.7597 
499 2 50.5438 60.1964 15.1509 
500 2 52.1526 61.8052 16.7597 
501 2 53.7614 60.1964 15.1509 
502 2 55.3701 61.8052 16.7597 
503 2 56.9789 60.1964 15.1509 
504 2 58.5877 61.8052 16.7597 
505 2 60.1964 60.1964 15.1509 
506 2 61.8052 61.8052 16.7597 
507 2 63.414 60.1964 15.1509 
508 2 65.0228 61.8052 16.7597 
509 2 66.6315 60.1964 15.1509 
510 2 68.2403 61.8052 16.7597 
511 2 15.1509 63.414 15.1509 
512 2 16.7597 65.0228 16.7597 
513 2 18.3685 63.414 15.1509 
514 2 19.9772 65.0228 16.7597 
515 2 21.586 63.414 15.1509 
516 2 23.1948 65.0228 16.7597 
517 2 24.8036 63.414 15.1509 
518 2 26.4123 65.0228 16.7597 
519 2 28.0211 63.414 15.1509 
520 2 29.6299 65.0228 16.7597 
521 2 31.2386 63.414 15.1509 
522 2 32.8474 65.0228 16.7597 
523 2 34.4562 63.414 15.1509 
524 2 36.0649 65.0228 16.7597 
525 2 37.6737 63.414 15.1509 
526 2 39.2825 65.0228 16.7597 
527 2 40.8912 63.414 15.1509 
528 2 42.5 65.0228 16.7597 
529 2 44.1088 63.414 15.1509 
530 2 45.7175 65.0228 16.7597 
531 2 47.3263 63.414 15.1509 
532 2 48.9351 65.0228 16.7597 
533 2 50.5438 63.414 15.1509 
534 2 52.1526 65.0228 16.7597 
535 2 53.7614 63.414 15.1509 
536 2 55.3701 65.0228 16.7597 
537 2 56.9789 63.414 15.1509 
538 2 58.5877 65.0228 16.7597 
539 2 60.1964 63.414 15.1509 
540 2 61.8052 65.0228 16.7597 
541 2 63.414 63.414 15.1509 
542 2 65.0228 65.0228 16.7597 
543 2 66.6315 63.414 15.1509 
544 2 68.2403 65.0228 16.7597 
545 2 15.1509 66.6315 15.1509 
546 2 16.7597 68.2403 16.7597 
547 2 18.3685 66.6315 15.1509 
548 2 19.9772 68.2403 16.7597 
549 2 21.586 66.6315 15.1509 
550 2 23.1948 68.2403 16.7597 
551 2 24.8036 66.6315 15.1509 
552 2 26.4123 68.2403 16.7597 
553 2 28.0211 66.6315 15.1509 
554 2 29.6299 68.2403 16.7597 
555 2 31.2386 66.6315 15.1509 
556 2 32.8474 68.2403 16.7597 
557 2 34.4562 66.6315 15.1509 
558 2 36.0649 68.2403 16.7597 
559 2 37.6737 66.6315 15.1509 
560 2 39.2825 68.2403 16.7597 
561 2 40.8912 66.6315 15.1509 
562 2 42.5 68.2403 16.7597 
563 2 44.1088 66.6315 15.1509 
564 2 45.7175 68.2403 16.7597 
565 2 47.3263 66.6315 15.1509 
566 2 48.9351 68.2403 16.7597 
567 2 50.5438 66.6315 15.1509 
568 2 52.1526 68.2403 16.7597 
569 2 53.7614 66.6315 15.1509 
570 2 55.3701 68.2403 16.7597 
571 2 56.9789 66.6315 15.1509 
572 2 58.5877 68.2403 16.7597 
573 2 60.1964 66.6315 15.1509 
574 2 61.8052 68.2403 16.7597 
575 2 63.414 66.6315 15.1509 
576 2 65.0228 68.2403 16.7597 
577 2 66.6315 66.6315 15.1509 
578 2 68.2403 68.2403 16.7597 
579 2 15.1509 15.1509 18.3685 
580 2 16.7597 16.7597 19.9772 
581 2 18.3685 15.1509 18.3685 
582 2 19.9772 16.7597 19.9772 
583 2 21.586 15.1509 18.3685 
584 2 23.1948 16.7597 19.9772 
585 2 24.8036 15.1509 18.3685 
586 2 26.4123 16.7597 19.9772 
587 2 28.0211 15.1509 18.3685 
588 2 29.6299 16.7597 19.9772 
589 2 31.2386 15.1509 18.3685 
590 2 32.8474 16.7597 19.9772 
591 2 34.4562 15.1509 18.3685 
592 2 36.0649 16.7597 19.9772 
593 2 37.6737 15.1509 18.3685 
594 2 39.2825 16.7597 19.9772 
595 2 40.8912 15.1509 18.3685 
596 2 42.5 16.7597 19.9772 
597 2 44.1088 15.1509 18.3685 
598 2 45.7175 16.7597 19.9772 
599 2 47.3263 15.1509 18.3685 
600 2 48.9351 16.7597 19.9772 
601 2 50.5438 15.1509 18.3685 
602 2 52.1526 16.7597 19.9772 
603 2 53.7614 15.1509 18.3685 
604 2 55.3701 16.7597 19.9772 
605 2 56.9789 15.1509 18.3685 
606 2 58.5877 16.7597 19.9772 
607 2 60.1964 15.1509 18.3685 
608 2 61.8052 16.7597 19.9772 
609 2 63.414 15.1509 18.3685 
610 2 65.0228 16.7597 19.9772 
611 2 66.6315 15.1509 18.3685 
612 2 68.2403 16.7597 19.9772 
613 2 15.1509 18.3685 18.3685 
614 2 16.7597 19.9772 19.9772 
615 2 18.3685 18.3685 18.3685 
616 2 19.9772 19.9772 19.9772 
617 2 21.586 18.3685 18.3685 
618 2 23.1948 19.9772 19.9772 
619 2 24.8036 18.3685 18.3685 
620 2 26.4123 19.9772 19.9772 
621 2 28.0211 18.3685 18.3685 
622 2 29.6299 19.9772 19.9772 
623 2 31.2386 18.3685 18.3685 
624 2 32.8474 19.9772 19.9772 
625 2 34.4562 18.3685 18.3685 
626 2 36.0649 19.9772 19.9772 
627 2 37.6737 18.3685 18.3685 
628 2 39.2825 19.9772 19.9772 
629 2 40.8912 18.3685 18.3685 
630 2 42.5 19.9772 19.9772 
631 2 44.1088 18.3685 18.3685 
632 2 45.7175 19.9772 19.9772 
633 2 47.3263 18.3685 18.3685 
634 2 48.9351 19.9772 19.9772 
635 2 50.5438 18.3685 18.3685 
636 2 52.1526 19.9772 19.9772 
637 2 53.7614 18.3685 18.3685 
638 2 55.3701 19.9772 19.9772 
639 2 56.9789 18.3685 18.3685 
640 2 58.5877 19.9772 19.9772 
641 2 60.1964 18.3685 18.3685 
642 2 61.8052 19.9772 19.9772 
643 2 63.414 18.3685 18.3685 
644 2 65.0228 19.9772 19.9772 
645 2 66.6315 18.3685 18.3685 
646 2 68.2403 19.9772 19.9772 
647 2 15.1509 21.586 18.3685 
648 2 16.7597 23.1948 19.9772 
649 2 18.3685 21.586 18.3685 
650 2 19.9772 23.1948 19.9772 
651 2 21.586 21.586 18.3685 
652 2 23.1948 23.1948 19.9772 
653 2 24.8036 21.586 18.3685 
654 2 26.4123 23.1948 19.9772 
655 2 28.0211 21.586 18.3685 
656 2 29.6299 23.1948 19.9772 
657 2 31.2386 21.586 18.3685 
658 2 32.8474 23.1948 19.9772 
659 2 34.4562 21.586 18.3685 
660 2 36.0649 23.1948 19.9772 
661 2 37.6737 21.586 18.3685 
662 2 39.2825 23.1948 19.9772 
663 2 40.8912 21.586 18.3685 
664 2 42.5 23.1948 19.9772 
665 2 44.1088 21.586 18.3685 
666 2 45.7175 23.1948 19.9772 
667 2 47.3263 21.586 18.3685 
668 2 48.9351 23.1948 19.9772 
669 2 50.5438 21.586 18.3685 
670 2 52.1526 23.1948 19.9772 
671 2 53.7614 21.586 18.3685 
672 2 55.3701 23.1948 19.9772 
673 2 56.9789 21.586 18.3685 
674 2 58.5877 23.1948 19.9772 
675 2 60.1964 21.586 18.3685 
676 2 61.8052 23.1948 19.9772 
677 2 63.414 21.586 18.3685 
678 2 65.0228 23.1948 19.9772 
679 2 66.6315 21.586 18.3685 
680 2 68.2403 23.1948 19.9772 
681 2 15.1509 24.8036 18.3685 
682 2 16.7597 26.4123 19.9772 
683 2 18.3685 24.8036 18.3685 
684 2 19.9772 26.4123 19.9772 
685 2 21.586 24.8036 18.3685 
686 2 23.1948 26.4123 19.9772 
687 2 24.8036 24.8036 18.3685 
688 2 26.4123 26.4123 19.9772 
689 2 28.0211 24.8036 18.3685 
690 2 29.6299 26.4123 19.9772 
691 2 31.2386 24.8036 18.3685 
692 2 32.8474 26.4123 19.9772 
693 2 34.4562 24.8036 18.3685 
694 2 36.0649 26.4123 19.9772 
695 2 37.6737 24.8036 18.3685 
696 2 39.2825 26.4123 19.9772 
697 2 40.8912 24.8036 18.3685 
698 2 42.5 26.4123 19.9772 
699 2 44.1088 24.8036 18.3685 
700 2 45.7175 26.4123 19.9772 
701 2 47.3263 24.8036 18.3685 
702 2 48.9351 26.4123 19.9772 
703 2 50.5438 24.8036 18.3685 
704 2 52.1526 26.4123 19.9772 
705 2 53.7614 24.8036 18.3685 
706 2 55.3701 26.4123 19.9772 
707 2 56.9789 24.8036 18.3685 
708 2 58.5877 26.4123 19.9772 
709 2 60.1964 24.8036 18.3685 
710 2 61.8052 26.4123 19.9772 
711 2 63.414 24.8036 18.3685 
712 2 65.0228 26.4123 19.9772 
713 2 66.6315 24.8036 18.3685 
714 2 68.2403 26.4123 19.9772 
715 2 15.1509 28.0211 18.3685 
716 2 16.7597 29.6299 19.9772 
717 2 18.3685 28.0211 18.3685 
718 2 19.9772 29.6299 19.9772 
719 2 21.586 28.0211 18.3685 
720 2 23.1948 29.6299 19.9772 
721 2 24.8036 28.0211 18.3685 
722 2 26.4123 29.6299 19.9772 
723 2 28.0211 28.0211 18.3685 
724 2 29.6299 29.6299 19.9772 
725 2 31.2386 28.0211 18.3685 
726 2 32.8474 29.6299 19.9772 
727 2 34.4562 28.0211 18.3685 
728 2 36.0649 29.6299 19.9772 
729 2 37.6737 28.0211 18.3685 
730 2 39.2825 29.6299 19.9772 
731 2 40.8912 28.0211 18.3685 
732 2 42.5 29.6299 19.9772 
733 2 44.1088 28.0211 18.3685 
734 2 45.7175 29.6299 19.9772 
735 2 47.3263 28.0211 18.3685 
736 2 48.9351 29.6299 19.9772 
737 2 50.5438 28.0211 18.3685 
738 2 52.1526 29.6299 19.9772 
739 2 53.7614 28.0211 18.3685 
740 2 55.3701 29.6299 19.9772 
741 2 56.9789 28.0211 18.3685 
742 2 58.5877 29.6299 19.9772 
743 2 60.1964 28.0211 18.3685 
744 2 61.8052 29.6299 19.9772 
745 2 63.414 28.0211 18.3685 
746 2 65.0228 29.6299 19.9772 
747 2 66.6315 28.0211 18.3685 
748 2 68.2403 29.6299 19.9772 
749 2 15.1509 31.2386 18.3685 
750 2 16.7597 32.8474 19.9772 
751 2 18.3685 31.2386 18.3685 
752 2 19.9772 32.8474 19.9772 
753 2 21.586 31.2386 18.3685 
754 2 23.1948 32.8474 19.9772 
755 2 24.8036 31.2386 18.3685 
756 2 26.4123 32.8474 19.9772 
757 2 28.0211 31.2386 18.3685 
758 2 29.6299 32.8474 19.9772 
759 2 31.2386 31.2386 18.3685 
760 2 32.8474 32.8474 19.9772 
761 2 34.4562 31.2386 18.3685 
762 2 36.0649 32.8474 19.9772 
763 2 37.6737 31.2386 18.3685 
764 2 39.2825 32.8474 19.9772 
765 2 40.8912 31.2386 18.3685 
766 2 42.5 32.8474 19.9772 
767 2 44.1088 31.2386 18.3685 
768 2 45.7175 32.8474 19.9772 
769 2 47.3263 31.2386 18.3685 
770 2 48.9351 32.8474 19.9772 
771 2 50.5438 31.2386 18.3685 
772 2 52.1526 32.8474 19.9772 
773 2 53.7614 31.2386 18.3685 
774 2 55.3701 32.8474 19.9772 
775 2 56.9789 31.2386 18.3685 
776 2 58.5877 32.8474 19.9772 
777 2 60.1964 31.2386 18.3685 
778 2 61.8052 32.8474 19.9772 
779 2 63.414 31.2386 18.3685 
780 2 65.0228 32.8474 19.9772 
781 2 66.6315 31.2386 18.3685 
782 2 68.2403 32.8474 19.9772 
783 2 15.1509 34.4562 18.3685 
784 2 16.7597 36.0649 19.9772 
785 2 18.3685 34.4562 18.3685 
786 2 19.9772 36.0649 19.9772 
787 2 21.586 34.4562 18.3685 
788 2 23.1948 36.0649 19.9772 
789 2 24.8036 34.4562 18.3685 
790 2 26.4123 36.0649 19.9772 
791 2 28.0211 34.4562 18.3685 
792 2 29.6299 36.0649 19.9772 
793 2 31.2386 34.4562 18.3685 
794 2 32.8474 36.0649 19.9772 
795 2 34.4562 34.4562 18.3685 
796 2 36.0649 36.0649 19.9772 
797 2 37.6737 34.4562 18.3685 
798 2 39.2825 36.0649 19.9772 
799 2 40.8912 34.4562 18.3685 
800 2 42.5 36.0649 19.9772 
801 2 44.1088 34.4562 18.3685 
802 2 45.7175 36.0649 19.9772 
803 2 47.3263 34.4562 18.3685 
804 2 48.9351 36.0649 19.9772 
805 2 50.5438 34.4562 18.3685 
806 2 52.1526 36.0649 19.9772 
807 2 53.7614 34.4562 18.3685 
808 2 55.3701 36.0649 19.9772 
809 2 56.9789 34.4562 18.3685 
810 2 58.5877 36.0649 19.9772 
811 2 60.1964 34.4562 18.3685 
812 2 61.8052 36.0649 19.9772 
813 2 63.414 34.4562 18.3685 
814 2 65.0228 36.0649 19.9772 
815 2 66.6315 34.4562 18.3685 
816 2 68.2403 36.0649 19.9772 
817 2 15.1509 37.6737 18.3685 
818 2 16.7597 39.2825 19.9772 
819 2 18.3685 37.6737 18.3685 
820 2 19.9772 39.2825 19.9772 
821 2 21.586 37.6737 18.3685 
822 2 23.1948 39.2825 19.9772 
823 2 24.8036 37.6737 18.3685 
824 2 26.4123 39.2825 19.9772 
825 2 28.0211 37.6737 18.3685 
826 2 29.6299 39.2825 19.9772 
827 2 31.2386 37.6737 18.3685 
828 2 32.8474 39.2825 19.9772 
829 2 34.4562 37.6737 18.3685 
830 2 36.0649 39.2825 19.9772 
831 2 37.6737 37.6737 18.3685 
832 2 39.2825 39.2825 19.9772 
833 2 40.8912 37.6737 18.3685 
834 2 42.5 39.2825 19.9772 
835 2 44.1088 37.6737 18.3685 
836 2 45.7175 39.2825 19.9772 
837 2 47.3263 37.6737 18.3685 
838 2 48.9351 39.2825 19.9772 
839 2 50.5438 37.6737 18.3685 
840 2 52.1526 39.2825 19.9772 
841 2 53.7614 37.6737 18.3685 
842 2 55.3701 39.2825 19.9772 
843 2 56.9789 37.6737 18.3685 
844 2 58.5877 39.2825 19.9772 
845 2 60.1964 37.6737 18.3685 
846 2 61.8052 39.2825 19.9772 
847 2 63.414 37.6737 18.3685 
848 2 65.0228 39.2825 19.9772 
849 2 66.6315 37.6737 18.3685 
850 2 68.2403 39.2825 19.9772 
851 2 15.1509 40.8912 18.3685 
852 2 16.7597 42.5 19.9772 
853 2 18.3685 40.8912 18.3685 
854 2 19.9772 42.5 19.9772 
855 2 21.586 40.8912 18.3685 
856 2 23.1948 42.5 19.9772 
857 2 24.8036 40.8912 18.3685 
858 2 26.4123 42.5 19.9772 
859 2 28.0211 40.8912 18.3685 
860 2 29.6299 42.5 19.9772 
861 2 31.2386 40.8912 18.3685 
862 2 32.8474 42.5 19.9772 
863 2 34.4562 40.8912 18.3685 
864 2 36.0649 42.5 19.9772 
865 2 37.6737 40.8912 18.3685 
866 2 39.2825 42.5 19.9772 
867 2 40.8912 40.8912 18.3685 
868 2 42.5 42.5 19.9772 
869 2 44.1088 40.8912 18.3685 
870 2 45.7175 42.5 19.9772 
871 2 47.3263 40.8912 18.3685 
872 2 48.9351 42.5 19.9772 
873 2 50.5438 40.8912 18.3685 
874 2 52.1526 42.5 19.9772 
875 2 53.7614 40.8912 18.3685 
876 2 55.3701 42.5 19.9772 
877 2 56.9789 40.8912 18.3685 
878 2 58.5877 42.5 19.9772 
879 2 60.1964 40.8912 18.3685 
880 2 61.8052 42.5 19.9772 
881 2 63.414 40.8912 18.3685 
882 2 65.0228 42.5 19.9772 
883 2 66.6315 40.8912 18.3685 
884 2 68.2403 42.5 19.9772 
885 2 15.1509 44.1088 18.3685 
886 2 16.7597 45.7175 19.9772 
887 2 18.3685 44.1088 18.3685 
888 2 19.9772 45.7175 19.9772 
889 2 21.586 44.1088 18.3685 
890 2 23.1948 45.7175 19.9772 
891 2 24.8036 44.1088 18.3685 
892 2 26.4123 45.7175 19.9772 
893 2 28.0211 44.1088 18.3685 
894 2 29.6299 45.7175 19.9772 
895 2 31.2386 44.1088 18.3685 
896 2 32.8474 45.7175 19.9772 
897 2 34.4562 44.1088 18.3685 
898 2 36.0649 45.7175 19.9772 
899 2 37.6737 44.1088 18.3685 
900 2 39.2825 45.7175 19.9772 
901 2 40.8912 44.1088 18.3685 
902 2 42.5 45.7175 19.9772 
903 2 44.1088 44.1088 18.3685 
904 2 45.7175 45.7175 19.9772 
905 2 47.3263 44.1088 18.3685 
906 2 48.9351 45.7175 19.9772 
907 2 50.5438 44.1088 18.3685 
908 2 52.1526 45.7175 19.9772 
909 2 53.7614 44.1088 18.3685 
910 2 55.3701 45.7175 19.9772 
911 2 56.9789 44.1088 18.3685 
912 2 58.5877 45.7175 19.9772 
913 2 60.1964 44.1088 18.3685 
914 2 61.8052 45.7175 19.9772 
915 2 63.414 44.1088 18.3685 
916 2 65.0228 45.7175 19.9772 
917 2 66.6315 44.1088 18.3685 
918 2 68.2403 45.7175 19.9772 
919 2 15.1509 47.3263 18.3685 
920 2 16.7597 48.9351 19.9772 
921 2 18.3685 47.3263 18.3685 
922 2 19.9772 48.9351 19.9772 
923 2 21.586 47.3263 18.3685 
924 2 23.1948 48.9351 19.9772 
925 2 24.8036 47.3263 18.3685 
926 2 26.4123 48.9351 19.9772 
927 2 28.0211 47.3263 18.3685 
928 2 29.6299 48.9351 19.9772 
929 2 31.2386 47.3263 18.3685 
930 2 32.8474 48.9351 19.9772 
931 2 34.4562 47.3263 18.3685 
932 2 36.0649 48.9351 19.9772 
933 2 37.6737 47.3263 18.3685 
934 2 39.2825 48.9351 19.9772 
935 2 40.8912 47.3263 18.3685 
936 2 42.5 48.9351 19.9772 
937 2 44.1088 47.3263 18.3685 
938 2 45.7175 48.9351 19.9772 
939 2 47.3263 47.3263 18.3685 
940 2 48.9351 48.9351 19.9772 
941 2 50.5438 47.3263 18.3685 
942 2 52.1526 48.9351 19.9772 
943 2 53.7614 47.3263 18.3685 
944 2 55.3701 48.9351 19.9772 
945 2 56.9789 47.3263 18.3685 
946 2 58.5877 48.9351 19.9772 
947 2 60.1964 47.3263 18.3685 
948 2 61.8052 48.9351 19.9772 
949 2 63.414 47.3263 18.3685 
950 2 65.0228 48.9351 19.9772 
951 2 66.6315 47.3263 18.3685 
952 2 68.2403 48.9351 19.9772 
953 2 15.1509 50.5438 18.3685 
954 2 16.7597 52.1526 19.9772 
955 2 18.3685 50.5438 18.3685 
956 2 19.9772 52.1526 19.9772 
957 2 21.586 50.5438 18.3685 
958 2 23.1948 52.1526 19.9772 
959 2 24.8036 50.5438 18.3685 
960 2 26.4123 52.1526 19.9772 
961 2 28.0211 50.5438 18.3685 
962 2 29.6299 52.1526 19.9772 
963 2 31.2386 50.5438 18.3685 
964 2 32.8474 52.1526 19.9772 
965 2 34.4562 50.5438 18.3685 
966 2 36.0649 52.1526 19.9772 
967 2 37.6737 50.5438 18.3685 
968 2 39.2825 52.1526 19.9772 
969 2 40.8912 50.5438 18.3685 
970 2 42.5 52.1526 19.9772 
971 2 44.1088 50.5438 18.3685 
972 2 45.7175 52.1526 19.9772 
973 2 47.3263 50.5438 18.3685 