ITEM: TIMESTEP
42
ITEM: NUMBER OF ATOMS
19652
ITEM: BOX BOUNDS pp pp pp
8.3489629110489023e+00 7.6651037088950901e+01
8.3489629110489023e+00 7.6651037088950901e+01
8.3489629110489023e+00 7.6651037088950901e+01
ITEM: ATOMS id type xu yu zu 
1 2 8.34896 8.34896 8.34896 
2 2 10.3578 10.3578 8.34896 
3 2 10.3578 8.34896 10.3578 
4 2 8.34896 10.3578 10.3578 
5 2 12.3667 8.34896 8.34896 
6 2 14.3756 10.3578 8.34896 
7 2 14.3756 8.34896 10.3578 
8 2 12.3667 10.3578 10.3578 
9 2 16.3845 8.34896 8.34896 
10 2 18.3934 10.3578 8.34896 
11 2 18.3934 8.34896 10.3578 
12 2 16.3845 10.3578 10.3578 
13 2 20.4023 8.34896 8.34896 
14 2 22.4112 10.3578 8.34896 
15 2 22.4112 8.34896 10.3578 
16 2 20.4023 10.3578 10.3578 
17 2 24.42 8.34896 8.34896 
18 2 26.4289 10.3578 8.34896 
19 2 26.4289 8.34896 10.3578 
20 2 24.42 10.3578 10.3578 
21 2 28.4378 8.34896 8.34896 
22 2 30.4467 10.3578 8.34896 
23 2 30.4467 8.34896 10.3578 
24 2 28.4378 10.3578 10.3578 
25 2 32.4556 8.34896 8.34896 
26 2 34.4645 10.3578 8.34896 
27 2 34.4645 8.34896 10.3578 
28 2 32.4556 10.3578 10.3578 
29 2 36.4733 8.34896 8.34896 
30 2 38.4822 10.3578 8.34896 
31 2 38.4822 8.34896 10.3578 
32 2 36.4733 10.3578 10.3578 
33 2 40.4911 8.34896 8.34896 
34 2 42.5 10.3578 8.34896 
35 2 42.5 8.34896 10.3578 
36 2 40.4911 10.3578 10.3578 
37 2 44.5089 8.34896 8.34896 
38 2 46.5178 10.3578 8.34896 
39 2 46.5178 8.34896 10.3578 
40 2 44.5089 10.3578 10.3578 
41 2 48.5267 8.34896 8.34896 
42 2 50.5355 10.3578 8.34896 
43 2 50.5355 8.34896 10.3578 
44 2 48.5267 10.3578 10.3578 
45 2 52.5444 8.34896 8.34896 
46 2 54.5533 10.3578 8.34896 
47 2 54.5533 8.34896 10.3578 
48 2 52.5444 10.3578 10.3578 
49 2 56.5622 8.34896 8.34896 
50 2 58.5711 10.3578 8.34896 
51 2 58.5711 8.34896 10.3578 
52 2 56.5622 10.3578 10.3578 
53 2 60.58 8.34896 8.34896 
54 2 62.5888 10.3578 8.34896 
55 2 62.5888 8.34896 10.3578 
56 2 60.58 10.3578 10.3578 
57 2 64.5977 8.34896 8.34896 
58 2 66.6066 10.3578 8.34896 
59 2 66.6066 8.34896 10.3578 
60 2 64.5977 10.3578 10.3578 
61 2 68.6155 8.34896 8.34896 
62 2 70.6244 10.3578 8.34896 
63 2 70.6244 8.34896 10.3578 
64 2 68.6155 10.3578 10.3578 
65 2 72.6333 8.34896 8.34896 
66 2 74.6422 10.3578 8.34896 
67 2 74.6422 8.34896 10.3578 
68 2 72.6333 10.3578 10.3578 
69 2 8.34896 12.3667 8.34896 
70 2 10.3578 14.3756 8.34896 
71 2 10.3578 12.3667 10.3578 
72 2 8.34896 14.3756 10.3578 
73 2 12.3667 12.3667 8.34896 
74 2 14.3756 14.3756 8.34896 
75 2 14.3756 12.3667 10.3578 
76 2 12.3667 14.3756 10.3578 
77 2 16.3845 12.3667 8.34896 
78 2 18.3934 14.3756 8.34896 
79 2 18.3934 12.3667 10.3578 
80 2 16.3845 14.3756 10.3578 
81 2 20.4023 12.3667 8.34896 
82 2 22.4112 14.3756 8.34896 
83 2 22.4112 12.3667 10.3578 
84 2 20.4023 14.3756 10.3578 
85 2 24.42 12.3667 8.34896 
86 2 26.4289 14.3756 8.34896 
87 2 26.4289 12.3667 10.3578 
88 2 24.42 14.3756 10.3578 
89 2 28.4378 12.3667 8.34896 
90 2 30.4467 14.3756 8.34896 
91 2 30.4467 12.3667 10.3578 
92 2 28.4378 14.3756 10.3578 
93 2 32.4556 12.3667 8.34896 
94 2 34.4645 14.3756 8.34896 
95 2 34.4645 12.3667 10.3578 
96 2 32.4556 14.3756 10.3578 
97 2 36.4733 12.3667 8.34896 
98 2 38.4822 14.3756 8.34896 
99 2 38.4822 12.3667 10.3578 
100 2 36.4733 14.3756 10.3578 
101 2 40.4911 12.3667 8.34896 
102 2 42.5 14.3756 8.34896 
103 2 42.5 12.3667 10.3578 
104 2 40.4911 14.3756 10.3578 
105 2 44.5089 12.3667 8.34896 
106 2 46.5178 14.3756 8.34896 
107 2 46.5178 12.3667 10.3578 
108 2 44.5089 14.3756 10.3578 
109 2 48.5267 12.3667 8.34896 
110 2 50.5355 14.3756 8.34896 
111 2 50.5355 12.3667 10.3578 
112 2 48.5267 14.3756 10.3578 
113 2 52.5444 12.3667 8.34896 
114 2 54.5533 14.3756 8.34896 
115 2 54.5533 12.3667 10.3578 
116 2 52.5444 14.3756 10.3578 
117 2 56.5622 12.3667 8.34896 
118 2 58.5711 14.3756 8.34896 
119 2 58.5711 12.3667 10.3578 
120 2 56.5622 14.3756 10.3578 
121 2 60.58 12.3667 8.34896 
122 2 62.5888 14.3756 8.34896 
123 2 62.5888 12.3667 10.3578 
124 2 60.58 14.3756 10.3578 
125 2 64.5977 12.3667 8.34896 
126 2 66.6066 14.3756 8.34896 
127 2 66.6066 12.3667 10.3578 
128 2 64.5977 14.3756 10.3578 
129 2 68.6155 12.3667 8.34896 
130 2 70.6244 14.3756 8.34896 
131 2 70.6244 12.3667 10.3578 
132 2 68.6155 14.3756 10.3578 
133 2 72.6333 12.3667 8.34896 
134 2 74.6422 14.3756 8.34896 
135 2 74.6422 12.3667 10.3578 
136 2 72.6333 14.3756 10.3578 
137 2 8.34896 16.3845 8.34896 
138 2 10.3578 18.3934 8.34896 
139 2 10.3578 16.3845 10.3578 
140 2 8.34896 18.3934 10.3578 
141 2 12.3667 16.3845 8.34896 
142 2 14.3756 18.3934 8.34896 
143 2 14.3756 16.3845 10.3578 
144 2 12.3667 18.3934 10.3578 
145 2 16.3845 16.3845 8.34896 
146 2 18.3934 18.3934 8.34896 
147 2 18.3934 16.3845 10.3578 
148 2 16.3845 18.3934 10.3578 
149 2 20.4023 16.3845 8.34896 
150 2 22.4112 18.3934 8.34896 
151 2 22.4112 16.3845 10.3578 
152 2 20.4023 18.3934 10.3578 
153 2 24.42 16.3845 8.34896 
154 2 26.4289 18.3934 8.34896 
155 2 26.4289 16.3845 10.3578 
156 2 24.42 18.3934 10.3578 
157 2 28.4378 16.3845 8.34896 
158 2 30.4467 18.3934 8.34896 
159 2 30.4467 16.3845 10.3578 
160 2 28.4378 18.3934 10.3578 
161 2 32.4556 16.3845 8.34896 
162 2 34.4645 18.3934 8.34896 
163 2 34.4645 16.3845 10.3578 
164 2 32.4556 18.3934 10.3578 
165 2 36.4733 16.3845 8.34896 
166 2 38.4822 18.3934 8.34896 
167 2 38.4822 16.3845 10.3578 
168 2 36.4733 18.3934 10.3578 
169 2 40.4911 16.3845 8.34896 
170 2 42.5 18.3934 8.34896 
171 2 42.5 16.3845 10.3578 
172 2 40.4911 18.3934 10.3578 
173 2 44.5089 16.3845 8.34896 
174 2 46.5178 18.3934 8.34896 
175 2 46.5178 16.3845 10.3578 
176 2 44.5089 18.3934 10.3578 
177 2 48.5267 16.3845 8.34896 
178 2 50.5355 18.3934 8.34896 
179 2 50.5355 16.3845 10.3578 
180 2 48.5267 18.3934 10.3578 
181 2 52.5444 16.3845 8.34896 
182 2 54.5533 18.3934 8.34896 
183 2 54.5533 16.3845 10.3578 
184 2 52.5444 18.3934 10.3578 
185 2 56.5622 16.3845 8.34896 
186 2 58.5711 18.3934 8.34896 
187 2 58.5711 16.3845 10.3578 
188 2 56.5622 18.3934 10.3578 
189 2 60.58 16.3845 8.34896 
190 2 62.5888 18.3934 8.34896 
191 2 62.5888 16.3845 10.3578 
192 2 60.58 18.3934 10.3578 
193 2 64.5977 16.3845 8.34896 
194 2 66.6066 18.3934 8.34896 
195 2 66.6066 16.3845 10.3578 
196 2 64.5977 18.3934 10.3578 
197 2 68.6155 16.3845 8.34896 
198 2 70.6244 18.3934 8.34896 
199 2 70.6244 16.3845 10.3578 
200 2 68.6155 18.3934 10.3578 
201 2 72.6333 16.3845 8.34896 
202 2 74.6422 18.3934 8.34896 
203 2 74.6422 16.3845 10.3578 
204 2 72.6333 18.3934 10.3578 
205 2 8.34896 20.4023 8.34896 
206 2 10.3578 22.4112 8.34896 
207 2 10.3578 20.4023 10.3578 
208 2 8.34896 22.4112 10.3578 
209 2 12.3667 20.4023 8.34896 
210 2 14.3756 22.4112 8.34896 
211 2 14.3756 20.4023 10.3578 
212 2 12.3667 22.4112 10.3578 
213 2 16.3845 20.4023 8.34896 
214 2 18.3934 22.4112 8.34896 
215 2 18.3934 20.4023 10.3578 
216 2 16.3845 22.4112 10.3578 
217 2 20.4023 20.4023 8.34896 
218 2 22.4112 22.4112 8.34896 
219 2 22.4112 20.4023 10.3578 
220 2 20.4023 22.4112 10.3578 
221 2 24.42 20.4023 8.34896 
222 2 26.4289 22.4112 8.34896 
223 2 26.4289 20.4023 10.3578 
224 2 24.42 22.4112 10.3578 
225 2 28.4378 20.4023 8.34896 
226 2 30.4467 22.4112 8.34896 
227 2 30.4467 20.4023 10.3578 
228 2 28.4378 22.4112 10.3578 
229 2 32.4556 20.4023 8.34896 
230 2 34.4645 22.4112 8.34896 
231 2 34.4645 20.4023 10.3578 
232 2 32.4556 22.4112 10.3578 
233 2 36.4733 20.4023 8.34896 
234 2 38.4822 22.4112 8.34896 
235 2 38.4822 20.4023 10.3578 
236 2 36.4733 22.4112 10.3578 
237 2 40.4911 20.4023 8.34896 
238 2 42.5 22.4112 8.34896 
239 2 42.5 20.4023 10.3578 
240 2 40.4911 22.4112 10.3578 
241 2 44.5089 20.4023 8.34896 
242 2 46.5178 22.4112 8.34896 
243 2 46.5178 20.4023 10.3578 
244 2 44.5089 22.4112 10.3578 
245 2 48.5267 20.4023 8.34896 
246 2 50.5355 22.4112 8.34896 
247 2 50.5355 20.4023 10.3578 
248 2 48.5267 22.4112 10.3578 
249 2 52.5444 20.4023 8.34896 
250 2 54.5533 22.4112 8.34896 
251 2 54.5533 20.4023 10.3578 
252 2 52.5444 22.4112 10.3578 
253 2 56.5622 20.4023 8.34896 
254 2 58.5711 22.4112 8.34896 
255 2 58.5711 20.4023 10.3578 
256 2 56.5622 22.4112 10.3578 
257 2 60.58 20.4023 8.34896 
258 2 62.5888 22.4112 8.34896 
259 2 62.5888 20.4023 10.3578 
260 2 60.58 22.4112 10.3578 
261 2 64.5977 20.4023 8.34896 
262 2 66.6066 22.4112 8.34896 
263 2 66.6066 20.4023 10.3578 
264 2 64.5977 22.4112 10.3578 
265 2 68.6155 20.4023 8.34896 
266 2 70.6244 22.4112 8.34896 
267 2 70.6244 20.4023 10.3578 
268 2 68.6155 22.4112 10.3578 
269 2 72.6333 20.4023 8.34896 
270 2 74.6422 22.4112 8.34896 
271 2 74.6422 20.4023 10.3578 
272 2 72.6333 22.4112 10.3578 
273 2 8.34896 24.42 8.34896 
274 2 10.3578 26.4289 8.34896 
275 2 10.3578 24.42 10.3578 
276 2 8.34896 26.4289 10.3578 
277 2 12.3667 24.42 8.34896 
278 2 14.3756 26.4289 8.34896 
279 2 14.3756 24.42 10.3578 
280 2 12.3667 26.4289 10.3578 
281 2 16.3845 24.42 8.34896 
282 2 18.3934 26.4289 8.34896 
283 2 18.3934 24.42 10.3578 
284 2 16.3845 26.4289 10.3578 
285 2 20.4023 24.42 8.34896 
286 2 22.4112 26.4289 8.34896 
287 2 22.4112 24.42 10.3578 
288 2 20.4023 26.4289 10.3578 
289 2 24.42 24.42 8.34896 
290 2 26.4289 26.4289 8.34896 
291 2 26.4289 24.42 10.3578 
292 2 24.42 26.4289 10.3578 
293 2 28.4378 24.42 8.34896 
294 2 30.4467 26.4289 8.34896 
295 2 30.4467 24.42 10.3578 
296 2 28.4378 26.4289 10.3578 
297 2 32.4556 24.42 8.34896 
298 2 34.4645 26.4289 8.34896 
299 2 34.4645 24.42 10.3578 
300 2 32.4556 26.4289 10.3578 
301 2 36.4733 24.42 8.34896 
302 2 38.4822 26.4289 8.34896 
303 2 38.4822 24.42 10.3578 
304 2 36.4733 26.4289 10.3578 
305 2 40.4911 24.42 8.34896 
306 2 42.5 26.4289 8.34896 
307 2 42.5 24.42 10.3578 
308 2 40.4911 26.4289 10.3578 
309 2 44.5089 24.42 8.34896 
310 2 46.5178 26.4289 8.34896 
311 2 46.5178 24.42 10.3578 
312 2 44.5089 26.4289 10.3578 
313 2 48.5267 24.42 8.34896 
314 2 50.5355 26.4289 8.34896 
315 2 50.5355 24.42 10.3578 
316 2 48.5267 26.4289 10.3578 
317 2 52.5444 24.42 8.34896 
318 2 54.5533 26.4289 8.34896 
319 2 54.5533 24.42 10.3578 
320 2 52.5444 26.4289 10.3578 
321 2 56.5622 24.42 8.34896 
322 2 58.5711 26.4289 8.34896 
323 2 58.5711 24.42 10.3578 
324 2 56.5622 26.4289 10.3578 
325 2 60.58 24.42 8.34896 
326 2 62.5888 26.4289 8.34896 
327 2 62.5888 24.42 10.3578 
328 2 60.58 26.4289 10.3578 
329 2 64.5977 24.42 8.34896 
330 2 66.6066 26.4289 8.34896 
331 2 66.6066 24.42 10.3578 
332 2 64.5977 26.4289 10.3578 
333 2 68.6155 24.42 8.34896 
334 2 70.6244 26.4289 8.34896 
335 2 70.6244 24.42 10.3578 
336 2 68.6155 26.4289 10.3578 
337 2 72.6333 24.42 8.34896 
338 2 74.6422 26.4289 8.34896 
339 2 74.6422 24.42 10.3578 
340 2 72.6333 26.4289 10.3578 
341 2 8.34896 28.4378 8.34896 
342 2 10.3578 30.4467 8.34896 
343 2 10.3578 28.4378 10.3578 
344 2 8.34896 30.4467 10.3578 
345 2 12.3667 28.4378 8.34896 
346 2 14.3756 30.4467 8.34896 
347 2 14.3756 28.4378 10.3578 
348 2 12.3667 30.4467 10.3578 
349 2 16.3845 28.4378 8.34896 
350 2 18.3934 30.4467 8.34896 
351 2 18.3934 28.4378 10.3578 
352 2 16.3845 30.4467 10.3578 
353 2 20.4023 28.4378 8.34896 
354 2 22.4112 30.4467 8.34896 
355 2 22.4112 28.4378 10.3578 
356 2 20.4023 30.4467 10.3578 
357 2 24.42 28.4378 8.34896 
358 2 26.4289 30.4467 8.34896 
359 2 26.4289 28.4378 10.3578 
360 2 24.42 30.4467 10.3578 
361 2 28.4378 28.4378 8.34896 
362 2 30.4467 30.4467 8.34896 
363 2 30.4467 28.4378 10.3578 
364 2 28.4378 30.4467 10.3578 
365 2 32.4556 28.4378 8.34896 
366 2 34.4645 30.4467 8.34896 
367 2 34.4645 28.4378 10.3578 
368 2 32.4556 30.4467 10.3578 
369 2 36.4733 28.4378 8.34896 
370 2 38.4822 30.4467 8.34896 
371 2 38.4822 28.4378 10.3578 
372 2 36.4733 30.4467 10.3578 
373 2 40.4911 28.4378 8.34896 
374 2 42.5 30.4467 8.34896 
375 2 42.5 28.4378 10.3578 
376 2 40.4911 30.4467 10.3578 
377 2 44.5089 28.4378 8.34896 
378 2 46.5178 30.4467 8.34896 
379 2 46.5178 28.4378 10.3578 
380 2 44.5089 30.4467 10.3578 
381 2 48.5267 28.4378 8.34896 
382 2 50.5355 30.4467 8.34896 
383 2 50.5355 28.4378 10.3578 
384 2 48.5267 30.4467 10.3578 
385 2 52.5444 28.4378 8.34896 
386 2 54.5533 30.4467 8.34896 
387 2 54.5533 28.4378 10.3578 
388 2 52.5444 30.4467 10.3578 
389 2 56.5622 28.4378 8.34896 
390 2 58.5711 30.4467 8.34896 
391 2 58.5711 28.4378 10.3578 
392 2 56.5622 30.4467 10.3578 
393 2 60.58 28.4378 8.34896 
394 2 62.5888 30.4467 8.34896 
395 2 62.5888 28.4378 10.3578 
396 2 60.58 30.4467 10.3578 
397 2 64.5977 28.4378 8.34896 
398 2 66.6066 30.4467 8.34896 
399 2 66.6066 28.4378 10.3578 
400 2 64.5977 30.4467 10.3578 
401 2 68.6155 28.4378 8.34896 
402 2 70.6244 30.4467 8.34896 
403 2 70.6244 28.4378 10.3578 
404 2 68.6155 30.4467 10.3578 
405 2 72.6333 28.4378 8.34896 
406 2 74.6422 30.4467 8.34896 
407 2 74.6422 28.4378 10.3578 
408 2 72.6333 30.4467 10.3578 
409 2 8.34896 32.4556 8.34896 
410 2 10.3578 34.4645 8.34896 
411 2 10.3578 32.4556 10.3578 
412 2 8.34896 34.4645 10.3578 
413 2 12.3667 32.4556 8.34896 
414 2 14.3756 34.4645 8.34896 
415 2 14.3756 32.4556 10.3578 
416 2 12.3667 34.4645 10.3578 
417 2 16.3845 32.4556 8.34896 
418 2 18.3934 34.4645 8.34896 
419 2 18.3934 32.4556 10.3578 
420 2 16.3845 34.4645 10.3578 
421 2 20.4023 32.4556 8.34896 
422 2 22.4112 34.4645 8.34896 
423 2 22.4112 32.4556 10.3578 
424 2 20.4023 34.4645 10.3578 
425 2 24.42 32.4556 8.34896 
426 2 26.4289 34.4645 8.34896 
427 2 26.4289 32.4556 10.3578 
428 2 24.42 34.4645 10.3578 
429 2 28.4378 32.4556 8.34896 
430 2 30.4467 34.4645 8.34896 
431 2 30.4467 32.4556 10.3578 
432 2 28.4378 34.4645 10.3578 
433 2 32.4556 32.4556 8.34896 
434 2 34.4645 34.4645 8.34896 
435 2 34.4645 32.4556 10.3578 
436 2 32.4556 34.4645 10.3578 
437 2 36.4733 32.4556 8.34896 
438 2 38.4822 34.4645 8.34896 
439 2 38.4822 32.4556 10.3578 
440 2 36.4733 34.4645 10.3578 
441 2 40.4911 32.4556 8.34896 
442 2 42.5 34.4645 8.34896 
443 2 42.5 32.4556 10.3578 
444 2 40.4911 34.4645 10.3578 
445 2 44.5089 32.4556 8.34896 
446 2 46.5178 34.4645 8.34896 
447 2 46.5178 32.4556 10.3578 
448 2 44.5089 34.4645 10.3578 
449 2 48.5267 32.4556 8.34896 
450 2 50.5355 34.4645 8.34896 
451 2 50.5355 32.4556 10.3578 
452 2 48.5267 34.4645 10.3578 
453 2 52.5444 32.4556 8.34896 
454 2 54.5533 34.4645 8.34896 
455 2 54.5533 32.4556 10.3578 
456 2 52.5444 34.4645 10.3578 
457 2 56.5622 32.4556 8.34896 
458 2 58.5711 34.4645 8.34896 
459 2 58.5711 32.4556 10.3578 
460 2 56.5622 34.4645 10.3578 
461 2 60.58 32.4556 8.34896 
462 2 62.5888 34.4645 8.34896 
463 2 62.5888 32.4556 10.3578 
464 2 60.58 34.4645 10.3578 
465 2 64.5977 32.4556 8.34896 
466 2 66.6066 34.4645 8.34896 
467 2 66.6066 32.4556 10.3578 
468 2 64.5977 34.4645 10.3578 
469 2 68.6155 32.4556 8.34896 
470 2 70.6244 34.4645 8.34896 
471 2 70.6244 32.4556 10.3578 
472 2 68.6155 34.4645 10.3578 
473 2 72.6333 32.4556 8.34896 
474 2 74.6422 34.4645 8.34896 
475 2 74.6422 32.4556 10.3578 
476 2 72.6333 34.4645 10.3578 
477 2 8.34896 36.4733 8.34896 
478 2 10.3578 38.4822 8.34896 
479 2 10.3578 36.4733 10.3578 
480 2 8.34896 38.4822 10.3578 
481 2 12.3667 36.4733 8.34896 
482 2 14.3756 38.4822 8.34896 
483 2 14.3756 36.4733 10.3578 
484 2 12.3667 38.4822 10.3578 
485 2 16.3845 36.4733 8.34896 
486 2 18.3934 38.4822 8.34896 
487 2 18.3934 36.4733 10.3578 
488 2 16.3845 38.4822 10.3578 
489 2 20.4023 36.4733 8.34896 
490 2 22.4112 38.4822 8.34896 
491 2 22.4112 36.4733 10.3578 
492 2 20.4023 38.4822 10.3578 
493 2 24.42 36.4733 8.34896 
494 2 26.4289 38.4822 8.34896 
495 2 26.4289 36.4733 10.3578 
496 2 24.42 38.4822 10.3578 
497 2 28.4378 36.4733 8.34896 
498 2 30.4467 38.4822 8.34896 
499 2 30.4467 36.4733 10.3578 
500 2 28.4378 38.4822 10.3578 
501 2 32.4556 36.4733 8.34896 
502 2 34.4645 38.4822 8.34896 
503 2 34.4645 36.4733 10.3578 
504 2 32.4556 38.4822 10.3578 
505 2 36.4733 36.4733 8.34896 
506 2 38.4822 38.4822 8.34896 
507 2 38.4822 36.4733 10.3578 
508 2 36.4733 38.4822 10.3578 
509 2 40.4911 36.4733 8.34896 
510 2 42.5 38.4822 8.34896 
511 2 42.5 36.4733 10.3578 
512 2 40.4911 38.4822 10.3578 
513 2 44.5089 36.4733 8.34896 
514 2 46.5178 38.4822 8.34896 
515 2 46.5178 36.4733 10.3578 
516 2 44.5089 38.4822 10.3578 
517 2 48.5267 36.4733 8.34896 
518 2 50.5355 38.4822 8.34896 
519 2 50.5355 36.4733 10.3578 
520 2 48.5267 38.4822 10.3578 
521 2 52.5444 36.4733 8.34896 
522 2 54.5533 38.4822 8.34896 
523 2 54.5533 36.4733 10.3578 
524 2 52.5444 38.4822 10.3578 
525 2 56.5622 36.4733 8.34896 
526 2 58.5711 38.4822 8.34896 
527 2 58.5711 36.4733 10.3578 
528 2 56.5622 38.4822 10.3578 
529 2 60.58 36.4733 8.34896 
530 2 62.5888 38.4822 8.34896 
531 2 62.5888 36.4733 10.3578 
532 2 60.58 38.4822 10.3578 
533 2 64.5977 36.4733 8.34896 
534 2 66.6066 38.4822 8.34896 
535 2 66.6066 36.4733 10.3578 
536 2 64.5977 38.4822 10.3578 
537 2 68.6155 36.4733 8.34896 
538 2 70.6244 38.4822 8.34896 
539 2 70.6244 36.4733 10.3578 
540 2 68.6155 38.4822 10.3578 
541 2 72.6333 36.4733 8.34896 
542 2 74.6422 38.4822 8.34896 
543 2 74.6422 36.4733 10.3578 
544 2 72.6333 38.4822 10.3578 
545 2 8.34896 40.4911 8.34896 
546 2 10.3578 42.5 8.34896 
547 2 10.3578 40.4911 10.3578 
548 2 8.34896 42.5 10.3578 
549 2 12.3667 40.4911 8.34896 
550 2 14.3756 42.5 8.34896 
551 2 14.3756 40.4911 10.3578 
552 2 12.3667 42.5 10.3578 
553 2 16.3845 40.4911 8.34896 
554 2 18.3934 42.5 8.34896 
555 2 18.3934 40.4911 10.3578 
556 2 16.3845 42.5 10.3578 
557 2 20.4023 40.4911 8.34896 
558 2 22.4112 42.5 8.34896 
559 2 22.4112 40.4911 10.3578 
560 2 20.4023 42.5 10.3578 
561 2 24.42 40.4911 8.34896 
562 2 26.4289 42.5 8.34896 
563 2 26.4289 40.4911 10.3578 
564 2 24.42 42.5 10.3578 
565 2 28.4378 40.4911 8.34896 
566 2 30.4467 42.5 8.34896 
567 2 30.4467 40.4911 10.3578 
568 2 28.4378 42.5 10.3578 
569 2 32.4556 40.4911 8.34896 
570 2 34.4645 42.5 8.34896 
571 2 34.4645 40.4911 10.3578 
572 2 32.4556 42.5 10.3578 
573 2 36.4733 40.4911 8.34896 
574 2 38.4822 42.5 8.34896 
575 2 38.4822 40.4911 10.3578 
576 2 36.4733 42.5 10.3578 
577 2 40.4911 40.4911 8.34896 
578 2 42.5 42.5 8.34896 
579 2 42.5 40.4911 10.3578 
580 2 40.4911 42.5 10.3578 
581 2 44.5089 40.4911 8.34896 
582 2 46.5178 42.5 8.34896 
583 2 46.5178 40.4911 10.3578 
584 2 44.5089 42.5 10.3578 
585 2 48.5267 40.4911 8.34896 
586 2 50.5355 42.5 8.34896 
587 2 50.5355 40.4911 10.3578 
588 2 48.5267 42.5 10.3578 
589 2 52.5444 40.4911 8.34896 
590 2 54.5533 42.5 8.34896 
591 2 54.5533 40.4911 10.3578 
592 2 52.5444 42.5 10.3578 
593 2 56.5622 40.4911 8.34896 
594 2 58.5711 42.5 8.34896 
595 2 58.5711 40.4911 10.3578 
596 2 56.5622 42.5 10.3578 
597 2 60.58 40.4911 8.34896 
598 2 62.5888 42.5 8.34896 
599 2 62.5888 40.4911 10.3578 
600 2 60.58 42.5 10.3578 
601 2 64.5977 40.4911 8.34896 
602 2 66.6066 42.5 8.34896 
603 2 66.6066 40.4911 10.3578 
604 2 64.5977 42.5 10.3578 
605 2 68.6155 40.4911 8.34896 
606 2 70.6244 42.5 8.34896 
607 2 70.6244 40.4911 10.3578 
608 2 68.6155 42.5 10.3578 
609 2 72.6333 40.4911 8.34896 
610 2 74.6422 42.5 8.34896 
611 2 74.6422 40.4911 10.3578 
612 2 72.6333 42.5 10.3578 
613 2 8.34896 44.5089 8.34896 
614 2 10.3578 46.5178 8.34896 
615 2 10.3578 44.5089 10.3578 
616 2 8.34896 46.5178 10.3578 
617 2 12.3667 44.5089 8.34896 
618 2 14.3756 46.5178 8.34896 
619 2 14.3756 44.5089 10.3578 
620 2 12.3667 46.5178 10.3578 
621 2 16.3845 44.5089 8.34896 
622 2 18.3934 46.5178 8.34896 
623 2 18.3934 44.5089 10.3578 
624 2 16.3845 46.5178 10.3578 
625 2 20.4023 44.5089 8.34896 
626 2 22.4112 46.5178 8.34896 
627 2 22.4112 44.5089 10.3578 
628 2 20.4023 46.5178 10.3578 
629 2 24.42 44.5089 8.34896 
630 2 26.4289 46.5178 8.34896 
631 2 26.4289 44.5089 10.3578 
632 2 24.42 46.5178 10.3578 
633 2 28.4378 44.5089 8.34896 
634 2 30.4467 46.5178 8.34896 
635 2 30.4467 44.5089 10.3578 
636 2 28.4378 46.5178 10.3578 
637 2 32.4556 44.5089 8.34896 
638 2 34.4645 46.5178 8.34896 
639 2 34.4645 44.5089 10.3578 
640 2 32.4556 46.5178 10.3578 
641 2 36.4733 44.5089 8.34896 
642 2 38.4822 46.5178 8.34896 
643 2 38.4822 44.5089 10.3578 
644 2 36.4733 46.5178 10.3578 
645 2 40.4911 44.5089 8.34896 
646 2 42.5 46.5178 8.34896 
647 2 42.5 44.5089 10.3578 
648 2 40.4911 46.5178 10.3578 
649 2 44.5089 44.5089 8.34896 
650 2 46.5178 46.5178 8.34896 
651 2 46.5178 44.5089 10.3578 
652 2 44.5089 46.5178 10.3578 
653 2 48.5267 44.5089 8.34896 
654 2 50.5355 46.5178 8.34896 
655 2 50.5355 44.5089 10.3578 
656 2 48.5267 46.5178 10.3578 
657 2 52.5444 44.5089 8.34896 
658 2 54.5533 46.5178 8.34896 
659 2 54.5533 44.5089 10.3578 
660 2 52.5444 46.5178 10.3578 
661 2 56.5622 44.5089 8.34896 
662 2 58.5711 46.5178 8.34896 
663 2 58.5711 44.5089 10.3578 
664 2 56.5622 46.5178 10.3578 
665 2 60.58 44.5089 8.34896 
666 2 62.5888 46.5178 8.34896 
667 2 62.5888 44.5089 10.3578 
668 2 60.58 46.5178 10.3578 
669 2 64.5977 44.5089 8.34896 
670 2 66.6066 46.5178 8.34896 
671 2 66.6066 44.5089 10.3578 
672 2 64.5977 46.5178 10.3578 
673 2 68.6155 44.5089 8.34896 
674 2 70.6244 46.5178 8.34896 
675 2 70.6244 44.5089 10.3578 
676 2 68.6155 46.5178 10.3578 
677 2 72.6333 44.5089 8.34896 
678 2 74.6422 46.5178 8.34896 
679 2 74.6422 44.5089 10.3578 
680 2 72.6333 46.5178 10.3578 
681 2 8.34896 48.5267 8.34896 
682 2 10.3578 50.5355 8.34896 
683 2 10.3578 48.5267 10.3578 
684 2 8.34896 50.5355 10.3578 
685 2 12.3667 48.5267 8.34896 
686 2 14.3756 50.5355 8.34896 
687 2 14.3756 48.5267 10.3578 
688 2 12.3667 50.5355 10.3578 
689 2 16.3845 48.5267 8.34896 
690 2 18.3934 50.5355 8.34896 
691 2 18.3934 48.5267 10.3578 
692 2 16.3845 50.5355 10.3578 
693 2 20.4023 48.5267 8.34896 
694 2 22.4112 50.5355 8.34896 
695 2 22.4112 48.5267 10.3578 
696 2 20.4023 50.5355 10.3578 
697 2 24.42 48.5267 8.34896 
698 2 26.4289 50.5355 8.34896 
699 2 26.4289 48.5267 10.3578 
700 2 24.42 50.5355 10.3578 
701 2 28.4378 48.5267 8.34896 
702 2 30.4467 50.5355 8.34896 
703 2 30.4467 48.5267 10.3578 
704 2 28.4378 50.5355 10.3578 
705 2 32.4556 48.5267 8.34896 
706 2 34.4645 50.5355 8.34896 
707 2 34.4645 48.5267 10.3578 
708 2 32.4556 50.5355 10.3578 
709 2 36.4733 48.5267 8.34896 
710 2 38.4822 50.5355 8.34896 
711 2 38.4822 48.5267 10.3578 
712 2 36.4733 50.5355 10.3578 
713 2 40.4911 48.5267 8.34896 
714 2 42.5 50.5355 8.34896 
715 2 42.5 48.5267 10.3578 
716 2 40.4911 50.5355 10.3578 
717 2 44.5089 48.5267 8.34896 
718 2 46.5178 50.5355 8.34896 
719 2 46.5178 48.5267 10.3578 
720 2 44.5089 50.5355 10.3578 
721 2 48.5267 48.5267 8.34896 
722 2 50.5355 50.5355 8.34896 
723 2 50.5355 48.5267 10.3578 
724 2 48.5267 50.5355 10.3578 
725 2 52.5444 48.5267 8.34896 
726 2 54.5533 50.5355 8.34896 
727 2 54.5533 48.5267 10.3578 
728 2 52.5444 50.5355 10.3578 
729 2 56.5622 48.5267 8.34896 
730 2 58.5711 50.5355 8.34896 
731 2 58.5711 48.5267 10.3578 
732 2 56.5622 50.5355 10.3578 
733 2 60.58 48.5267 8.34896 
734 2 62.5888 50.5355 8.34896 
735 2 62.5888 48.5267 10.3578 
736 2 60.58 50.5355 10.3578 
737 2 64.5977 48.5267 8.34896 
738 2 66.6066 50.5355 8.34896 
739 2 66.6066 48.5267 10.3578 
740 2 64.5977 50.5355 10.3578 
741 2 68.6155 48.5267 8.34896 
742 2 70.6244 50.5355 8.34896 
743 2 70.6244 48.5267 10.3578 
744 2 68.6155 50.5355 10.3578 
745 2 72.6333 48.5267 8.34896 
746 2 74.6422 50.5355 8.34896 
747 2 74.6422 48.5267 10.3578 
748 2 72.6333 50.5355 10.3578 
749 2 8.34896 52.5444 8.34896 
750 2 10.3578 54.5533 8.34896 
751 2 10.3578 52.5444 10.3578 
752 2 8.34896 54.5533 10.3578 
753 2 12.3667 52.5444 8.34896 
754 2 14.3756 54.5533 8.34896 
755 2 14.3756 52.5444 10.3578 
756 2 12.3667 54.5533 10.3578 
757 2 16.3845 52.5444 8.34896 
758 2 18.3934 54.5533 8.34896 
759 2 18.3934 52.5444 10.3578 
760 2 16.3845 54.5533 10.3578 
761 2 20.4023 52.5444 8.34896 
762 2 22.4112 54.5533 8.34896 
763 2 22.4112 52.5444 10.3578 
764 2 20.4023 54.5533 10.3578 
765 2 24.42 52.5444 8.34896 
766 2 26.4289 54.5533 8.34896 
767 2 26.4289 52.5444 10.3578 
768 2 24.42 54.5533 10.3578 
769 2 28.4378 52.5444 8.34896 
770 2 30.4467 54.5533 8.34896 
771 2 30.4467 52.5444 10.3578 
772 2 28.4378 54.5533 10.3578 
773 2 32.4556 52.5444 8.34896 
774 2 34.4645 54.5533 8.34896 
775 2 34.4645 52.5444 10.3578 
776 2 32.4556 54.5533 10.3578 
777 2 36.4733 52.5444 8.34896 
778 2 38.4822 54.5533 8.34896 
779 2 38.4822 52.5444 10.3578 
780 2 36.4733 54.5533 10.3578 
781 2 40.4911 52.5444 8.34896 
782 2 42.5 54.5533 8.34896 
783 2 42.5 52.5444 10.3578 
784 2 40.4911 54.5533 10.3578 
785 2 44.5089 52.5444 8.34896 
786 2 46.5178 54.5533 8.34896 
787 2 46.5178 52.5444 10.3578 
788 2 44.5089 54.5533 10.3578 
789 2 48.5267 52.5444 8.34896 
790 2 50.5355 54.5533 8.34896 
791 2 50.5355 52.5444 10.3578 
792 2 48.5267 54.5533 10.3578 
793 2 52.5444 52.5444 8.34896 
794 2 54.5533 54.5533 8.34896 
795 2 54.5533 52.5444 10.3578 
796 2 52.5444 54.5533 10.3578 
797 2 56.5622 52.5444 8.34896 
798 2 58.5711 54.5533 8.34896 
799 2 58.5711 52.5444 10.3578 
800 2 56.5622 54.5533 10.3578 
801 2 60.58 52.5444 8.34896 
802 2 62.5888 54.5533 8.34896 
803 2 62.5888 52.5444 10.3578 
804 2 60.58 54.5533 10.3578 
805 2 64.5977 52.5444 8.34896 
806 2 66.6066 54.5533 8.34896 
807 2 66.6066 52.5444 10.3578 
808 2 64.5977 54.5533 10.3578 
809 2 68.6155 52.5444 8.34896 
810 2 70.6244 54.5533 8.34896 
811 2 70.6244 52.5444 10.3578 
812 2 68.6155 54.5533 10.3578 
813 2 72.6333 52.5444 8.34896 
814 2 74.6422 54.5533 8.34896 
815 2 74.6422 52.5444 10.3578 
816 2 72.6333 54.5533 10.3578 
817 2 8.34896 56.5622 8.34896 
818 2 10.3578 58.5711 8.34896 
819 2 10.3578 56.5622 10.3578 
820 2 8.34896 58.5711 10.3578 
821 2 12.3667 56.5622 8.34896 
822 2 14.3756 58.5711 8.34896 
823 2 14.3756 56.5622 10.3578 
824 2 12.3667 58.5711 10.3578 
825 2 16.3845 56.5622 8.34896 
826 2 18.3934 58.5711 8.34896 
827 2 18.3934 56.5622 10.3578 
828 2 16.3845 58.5711 10.3578 
829 2 20.4023 56.5622 8.34896 
830 2 22.4112 58.5711 8.34896 
831 2 22.4112 56.5622 10.3578 
832 2 20.4023 58.5711 10.3578 
833 2 24.42 56.5622 8.34896 
834 2 26.4289 58.5711 8.34896 
835 2 26.4289 56.5622 10.3578 
836 2 24.42 58.5711 10.3578 
837 2 28.4378 56.5622 8.34896 
838 2 30.4467 58.5711 8.34896 
839 2 30.4467 56.5622 10.3578 
840 2 28.4378 58.5711 10.3578 
841 2 32.4556 56.5622 8.34896 
842 2 34.4645 58.5711 8.34896 
843 2 34.4645 56.5622 10.3578 
844 2 32.4556 58.5711 10.3578 
845 2 36.4733 56.5622 8.34896 
846 2 38.4822 58.5711 8.34896 
847 2 38.4822 56.5622 10.3578 
848 2 36.4733 58.5711 10.3578 
849 2 40.4911 56.5622 8.34896 
850 2 42.5 58.5711 8.34896 
851 2 42.5 56.5622 10.3578 
852 2 40.4911 58.5711 10.3578 
853 2 44.5089 56.5622 8.34896 
854 2 46.5178 58.5711 8.34896 
855 2 46.5178 56.5622 10.3578 
856 2 44.5089 58.5711 10.3578 
857 2 48.5267 56.5622 8.34896 
858 2 50.5355 58.5711 8.34896 
859 2 50.5355 56.5622 10.3578 
860 2 48.5267 58.5711 10.3578 
861 2 52.5444 56.5622 8.34896 
862 2 54.5533 58.5711 8.34896 
863 2 54.5533 56.5622 10.3578 
864 2 52.5444 58.5711 10.3578 
865 2 56.5622 56.5622 8.34896 
866 2 58.5711 58.5711 8.34896 
867 2 58.5711 56.5622 10.3578 
868 2 56.5622 58.5711 10.3578 
869 2 60.58 56.5622 8.34896 
870 2 62.5888 58.5711 8.34896 
871 2 62.5888 56.5622 10.3578 
872 2 60.58 58.5711 10.3578 
873 2 64.5977 56.5622 8.34896 
874 2 66.6066 58.5711 8.34896 
875 2 66.6066 56.5622 10.3578 
876 2 64.5977 58.5711 10.3578 
877 2 68.6155 56.5622 8.34896 
878 2 70.6244 58.5711 8.34896 
879 2 70.6244 56.5622 10.3578 
880 2 68.6155 58.5711 10.3578 
881 2 72.6333 56.5622 8.34896 
882 2 74.6422 58.5711 8.34896 
883 2 74.6422 56.5622 10.3578 
884 2 72.6333 58.5711 10.3578 
885 2 8.34896 60.58 8.34896 
886 2 10.3578 62.5888 8.34896 
887 2 10.3578 60.58 10.3578 
888 2 8.34896 62.5888 10.3578 
889 2 12.3667 60.58 8.34896 
890 2 14.3756 62.5888 8.34896 
891 2 14.3756 60.58 10.3578 
892 2 12.3667 62.5888 10.3578 
893 2 16.3845 60.58 8.34896 
894 2 18.3934 62.5888 8.34896 
895 2 18.3934 60.58 10.3578 
896 2 16.3845 62.5888 10.3578 
897 2 20.4023 60.58 8.34896 
898 2 22.4112 62.5888 8.34896 
899 2 22.4112 60.58 10.3578 
900 2 20.4023 62.5888 10.3578 
901 2 24.42 60.58 8.34896 
902 2 26.4289 62.5888 8.34896 
903 2 26.4289 60.58 10.3578 
904 2 24.42 62.5888 10.3578 
905 2 28.4378 60.58 8.34896 
906 2 30.4467 62.5888 8.34896 
907 2 30.4467 60.58 10.3578 
908 2 28.4378 62.5888 10.3578 
909 2 32.4556 60.58 8.34896 
910 2 34.4645 62.5888 8.34896 
911 2 34.4645 60.58 10.3578 
912 2 32.4556 62.5888 10.3578 
913 2 36.4733 60.58 8.34896 
914 2 38.4822 62.5888 8.34896 
915 2 38.4822 60.58 10.3578 
916 2 36.4733 62.5888 10.3578 
917 2 40.4911 60.58 8.34896 
918 2 42.5 62.5888 8.34896 
919 2 42.5 60.58 10.3578 
920 2 40.4911 62.5888 10.3578 
921 2 44.5089 60.58 8.34896 
922 2 46.5178 62.5888 8.34896 
923 2 46.5178 60.58 10.3578 
924 2 44.5089 62.5888 10.3578 
925 2 48.5267 60.58 8.34896 
926 2 50.5355 62.5888 8.34896 
927 2 50.5355 60.58 10.3578 
928 2 48.5267 62.5888 10.3578 
929 2 52.5444 60.58 8.34896 
930 2 54.5533 62.5888 8.34896 
931 2 54.5533 60.58 10.3578 
932 2 52.5444 62.5888 10.3578 
933 2 56.5622 60.58 8.34896 
934 2 58.5711 62.5888 8.34896 
935 2 58.5711 60.58 10.3578 
936 2 56.5622 62.5888 10.3578 
937 2 60.58 60.58 8.34896 
938 2 62.5888 62.5888 8.34896 
939 2 62.5888 60.58 10.3578 
940 2 60.58 62.5888 10.3578 
941 2 64.5977 60.58 8.34896 
942 2 66.6066 62.5888 8.34896 
943 2 66.6066 60.58 10.3578 
944 2 64.5977 62.5888 10.3578 
945 2 68.6155 60.58 8.34896 
946 2 70.6244 62.5888 8.34896 
947 2 70.6244 60.58 10.3578 
948 2 68.6155 62.5888 10.3578 
949 2 72.6333 60.58 8.34896 
950 2 74.6422 62.5888 8.34896 
951 2 74.6422 60.58 10.3578 
952 2 72.6333 62.5888 10.3578 
953 2 8.34896 64.5977 8.34896 
954 2 10.3578 66.6066 8.34896 
955 2 10.3578 64.5977 10.3578 
956 2 8.34896 66.6066 10.3578 
957 2 12.3667 64.5977 8.34896 
958 2 14.3756 66.6066 8.34896 
959 2 14.3756 64.5977 10.3578 
960 2 12.3667 66.6066 10.3578 
961 2 16.3845 64.5977 8.34896 
962 2 18.3934 66.6066 8.34896 
963 2 18.3934 64.5977 10.3578 
964 2 16.3845 66.6066 10.3578 
965 2 20.4023 64.5977 8.34896 
966 2 22.4112 66.6066 8.34896 
967 2 22.4112 64.5977 10.3578 
968 2 20.4023 66.6066 10.3578 
969 2 24.42 64.5977 8.34896 
970 2 26.4289 66.6066 8.34896 
971 2 26.4289 64.5977 10.3578 
972 2 24.42 66.6066 10.3578 
973 2 28.4378 64.5977 8.34896 
974 2 30.4467 66.6066 8.34896 
975 2 30.4467 64.5977 10.3578 
976 2 28.4378 66.6066 10.3578 
977 2 32.4556 64.5977 8.34896 