ITEM: TIMESTEP
63
ITEM: NUMBER OF ATOMS
19652
ITEM: BOX BOUNDS pp pp pp
1.2706425277839235e+01 7.2293574722160443e+01
1.2706425277839235e+01 7.2293574722160443e+01
1.2706425277839235e+01 7.2293574722160443e+01
ITEM: ATOMS id type xu yu zu 
1 2 12.7064 12.7064 12.7064 
2 2 14.459 14.459 12.7064 
3 2 14.459 12.7064 14.459 
4 2 12.7064 14.459 14.459 
5 2 16.2116 12.7064 12.7064 
6 2 17.9641 14.459 12.7064 
7 2 17.9641 12.7064 14.459 
8 2 16.2116 14.459 14.459 
9 2 19.7167 12.7064 12.7064 
10 2 21.4692 14.459 12.7064 
11 2 21.4692 12.7064 14.459 
12 2 19.7167 14.459 14.459 
13 2 23.2218 12.7064 12.7064 
14 2 24.9744 14.459 12.7064 
15 2 24.9744 12.7064 14.459 
16 2 23.2218 14.459 14.459 
17 2 26.7269 12.7064 12.7064 
18 2 28.4795 14.459 12.7064 
19 2 28.4795 12.7064 14.459 
20 2 26.7269 14.459 14.459 
21 2 30.2321 12.7064 12.7064 
22 2 31.9846 14.459 12.7064 
23 2 31.9846 12.7064 14.459 
24 2 30.2321 14.459 14.459 
25 2 33.7372 12.7064 12.7064 
26 2 35.4897 14.459 12.7064 
27 2 35.4897 12.7064 14.459 
28 2 33.7372 14.459 14.459 
29 2 37.2423 12.7064 12.7064 
30 2 38.9949 14.459 12.7064 
31 2 38.9949 12.7064 14.459 
32 2 37.2423 14.459 14.459 
33 2 40.7474 12.7064 12.7064 
34 2 42.5 14.459 12.7064 
35 2 42.5 12.7064 14.459 
36 2 40.7474 14.459 14.459 
37 2 44.2526 12.7064 12.7064 
38 2 46.0051 14.459 12.7064 
39 2 46.0051 12.7064 14.459 
40 2 44.2526 14.459 14.459 
41 2 47.7577 12.7064 12.7064 
42 2 49.5103 14.459 12.7064 
43 2 49.5103 12.7064 14.459 
44 2 47.7577 14.459 14.459 
45 2 51.2628 12.7064 12.7064 
46 2 53.0154 14.459 12.7064 
47 2 53.0154 12.7064 14.459 
48 2 51.2628 14.459 14.459 
49 2 54.7679 12.7064 12.7064 
50 2 56.5205 14.459 12.7064 
51 2 56.5205 12.7064 14.459 
52 2 54.7679 14.459 14.459 
53 2 58.2731 12.7064 12.7064 
54 2 60.0256 14.459 12.7064 
55 2 60.0256 12.7064 14.459 
56 2 58.2731 14.459 14.459 
57 2 61.7782 12.7064 12.7064 
58 2 63.5308 14.459 12.7064 
59 2 63.5308 12.7064 14.459 
60 2 61.7782 14.459 14.459 
61 2 65.2833 12.7064 12.7064 
62 2 67.0359 14.459 12.7064 
63 2 67.0359 12.7064 14.459 
64 2 65.2833 14.459 14.459 
65 2 68.7884 12.7064 12.7064 
66 2 70.541 14.459 12.7064 
67 2 70.541 12.7064 14.459 
68 2 68.7884 14.459 14.459 
69 2 12.7064 16.2116 12.7064 
70 2 14.459 17.9641 12.7064 
71 2 14.459 16.2116 14.459 
72 2 12.7064 17.9641 14.459 
73 2 16.2116 16.2116 12.7064 
74 2 17.9641 17.9641 12.7064 
75 2 17.9641 16.2116 14.459 
76 2 16.2116 17.9641 14.459 
77 2 19.7167 16.2116 12.7064 
78 2 21.4692 17.9641 12.7064 
79 2 21.4692 16.2116 14.459 
80 2 19.7167 17.9641 14.459 
81 2 23.2218 16.2116 12.7064 
82 2 24.9744 17.9641 12.7064 
83 2 24.9744 16.2116 14.459 
84 2 23.2218 17.9641 14.459 
85 2 26.7269 16.2116 12.7064 
86 2 28.4795 17.9641 12.7064 
87 2 28.4795 16.2116 14.459 
88 2 26.7269 17.9641 14.459 
89 2 30.2321 16.2116 12.7064 
90 2 31.9846 17.9641 12.7064 
91 2 31.9846 16.2116 14.459 
92 2 30.2321 17.9641 14.459 
93 2 33.7372 16.2116 12.7064 
94 2 35.4897 17.9641 12.7064 
95 2 35.4897 16.2116 14.459 
96 2 33.7372 17.9641 14.459 
97 2 37.2423 16.2116 12.7064 
98 2 38.9949 17.9641 12.7064 
99 2 38.9949 16.2116 14.459 
100 2 37.2423 17.9641 14.459 
101 2 40.7474 16.2116 12.7064 
102 2 42.5 17.9641 12.7064 
103 2 42.5 16.2116 14.459 
104 2 40.7474 17.9641 14.459 
105 2 44.2526 16.2116 12.7064 
106 2 46.0051 17.9641 12.7064 
107 2 46.0051 16.2116 14.459 
108 2 44.2526 17.9641 14.459 
109 2 47.7577 16.2116 12.7064 
110 2 49.5103 17.9641 12.7064 
111 2 49.5103 16.2116 14.459 
112 2 47.7577 17.9641 14.459 
113 2 51.2628 16.2116 12.7064 
114 2 53.0154 17.9641 12.7064 
115 2 53.0154 16.2116 14.459 
116 2 51.2628 17.9641 14.459 
117 2 54.7679 16.2116 12.7064 
118 2 56.5205 17.9641 12.7064 
119 2 56.5205 16.2116 14.459 
120 2 54.7679 17.9641 14.459 
121 2 58.2731 16.2116 12.7064 
122 2 60.0256 17.9641 12.7064 
123 2 60.0256 16.2116 14.459 
124 2 58.2731 17.9641 14.459 
125 2 61.7782 16.2116 12.7064 
126 2 63.5308 17.9641 12.7064 
127 2 63.5308 16.2116 14.459 
128 2 61.7782 17.9641 14.459 
129 2 65.2833 16.2116 12.7064 
130 2 67.0359 17.9641 12.7064 
131 2 67.0359 16.2116 14.459 
132 2 65.2833 17.9641 14.459 
133 2 68.7884 16.2116 12.7064 
134 2 70.541 17.9641 12.7064 
135 2 70.541 16.2116 14.459 
136 2 68.7884 17.9641 14.459 
137 2 12.7064 19.7167 12.7064 
138 2 14.459 21.4692 12.7064 
139 2 14.459 19.7167 14.459 
140 2 12.7064 21.4692 14.459 
141 2 16.2116 19.7167 12.7064 
142 2 17.9641 21.4692 12.7064 
143 2 17.9641 19.7167 14.459 
144 2 16.2116 21.4692 14.459 
145 2 19.7167 19.7167 12.7064 
146 2 21.4692 21.4692 12.7064 
147 2 21.4692 19.7167 14.459 
148 2 19.7167 21.4692 14.459 
149 2 23.2218 19.7167 12.7064 
150 2 24.9744 21.4692 12.7064 
151 2 24.9744 19.7167 14.459 
152 2 23.2218 21.4692 14.459 
153 2 26.7269 19.7167 12.7064 
154 2 28.4795 21.4692 12.7064 
155 2 28.4795 19.7167 14.459 
156 2 26.7269 21.4692 14.459 
157 2 30.2321 19.7167 12.7064 
158 2 31.9846 21.4692 12.7064 
159 2 31.9846 19.7167 14.459 
160 2 30.2321 21.4692 14.459 
161 2 33.7372 19.7167 12.7064 
162 2 35.4897 21.4692 12.7064 
163 2 35.4897 19.7167 14.459 
164 2 33.7372 21.4692 14.459 
165 2 37.2423 19.7167 12.7064 
166 2 38.9949 21.4692 12.7064 
167 2 38.9949 19.7167 14.459 
168 2 37.2423 21.4692 14.459 
169 2 40.7474 19.7167 12.7064 
170 2 42.5 21.4692 12.7064 
171 2 42.5 19.7167 14.459 
172 2 40.7474 21.4692 14.459 
173 2 44.2526 19.7167 12.7064 
174 2 46.0051 21.4692 12.7064 
175 2 46.0051 19.7167 14.459 
176 2 44.2526 21.4692 14.459 
177 2 47.7577 19.7167 12.7064 
178 2 49.5103 21.4692 12.7064 
179 2 49.5103 19.7167 14.459 
180 2 47.7577 21.4692 14.459 
181 2 51.2628 19.7167 12.7064 
182 2 53.0154 21.4692 12.7064 
183 2 53.0154 19.7167 14.459 
184 2 51.2628 21.4692 14.459 
185 2 54.7679 19.7167 12.7064 
186 2 56.5205 21.4692 12.7064 
187 2 56.5205 19.7167 14.459 
188 2 54.7679 21.4692 14.459 
189 2 58.2731 19.7167 12.7064 
190 2 60.0256 21.4692 12.7064 
191 2 60.0256 19.7167 14.459 
192 2 58.2731 21.4692 14.459 
193 2 61.7782 19.7167 12.7064 
194 2 63.5308 21.4692 12.7064 
195 2 63.5308 19.7167 14.459 
196 2 61.7782 21.4692 14.459 
197 2 65.2833 19.7167 12.7064 
198 2 67.0359 21.4692 12.7064 
199 2 67.0359 19.7167 14.459 
200 2 65.2833 21.4692 14.459 
201 2 68.7884 19.7167 12.7064 
202 2 70.541 21.4692 12.7064 
203 2 70.541 19.7167 14.459 
204 2 68.7884 21.4692 14.459 
205 2 12.7064 23.2218 12.7064 
206 2 14.459 24.9744 12.7064 
207 2 14.459 23.2218 14.459 
208 2 12.7064 24.9744 14.459 
209 2 16.2116 23.2218 12.7064 
210 2 17.9641 24.9744 12.7064 
211 2 17.9641 23.2218 14.459 
212 2 16.2116 24.9744 14.459 
213 2 19.7167 23.2218 12.7064 
214 2 21.4692 24.9744 12.7064 
215 2 21.4692 23.2218 14.459 
216 2 19.7167 24.9744 14.459 
217 2 23.2218 23.2218 12.7064 
218 2 24.9744 24.9744 12.7064 
219 2 24.9744 23.2218 14.459 
220 2 23.2218 24.9744 14.459 
221 2 26.7269 23.2218 12.7064 
222 2 28.4795 24.9744 12.7064 
223 2 28.4795 23.2218 14.459 
224 2 26.7269 24.9744 14.459 
225 2 30.2321 23.2218 12.7064 
226 2 31.9846 24.9744 12.7064 
227 2 31.9846 23.2218 14.459 
228 2 30.2321 24.9744 14.459 
229 2 33.7372 23.2218 12.7064 
230 2 35.4897 24.9744 12.7064 
231 2 35.4897 23.2218 14.459 
232 2 33.7372 24.9744 14.459 
233 2 37.2423 23.2218 12.7064 
234 2 38.9949 24.9744 12.7064 
235 2 38.9949 23.2218 14.459 
236 2 37.2423 24.9744 14.459 
237 2 40.7474 23.2218 12.7064 
238 2 42.5 24.9744 12.7064 
239 2 42.5 23.2218 14.459 
240 2 40.7474 24.9744 14.459 
241 2 44.2526 23.2218 12.7064 
242 2 46.0051 24.9744 12.7064 
243 2 46.0051 23.2218 14.459 
244 2 44.2526 24.9744 14.459 
245 2 47.7577 23.2218 12.7064 
246 2 49.5103 24.9744 12.7064 
247 2 49.5103 23.2218 14.459 
248 2 47.7577 24.9744 14.459 
249 2 51.2628 23.2218 12.7064 
250 2 53.0154 24.9744 12.7064 
251 2 53.0154 23.2218 14.459 
252 2 51.2628 24.9744 14.459 
253 2 54.7679 23.2218 12.7064 
254 2 56.5205 24.9744 12.7064 
255 2 56.5205 23.2218 14.459 
256 2 54.7679 24.9744 14.459 
257 2 58.2731 23.2218 12.7064 
258 2 60.0256 24.9744 12.7064 
259 2 60.0256 23.2218 14.459 
260 2 58.2731 24.9744 14.459 
261 2 61.7782 23.2218 12.7064 
262 2 63.5308 24.9744 12.7064 
263 2 63.5308 23.2218 14.459 
264 2 61.7782 24.9744 14.459 
265 2 65.2833 23.2218 12.7064 
266 2 67.0359 24.9744 12.7064 
267 2 67.0359 23.2218 14.459 
268 2 65.2833 24.9744 14.459 
269 2 68.7884 23.2218 12.7064 
270 2 70.541 24.9744 12.7064 
271 2 70.541 23.2218 14.459 
272 2 68.7884 24.9744 14.459 
273 2 12.7064 26.7269 12.7064 
274 2 14.459 28.4795 12.7064 
275 2 14.459 26.7269 14.459 
276 2 12.7064 28.4795 14.459 
277 2 16.2116 26.7269 12.7064 
278 2 17.9641 28.4795 12.7064 
279 2 17.9641 26.7269 14.459 
280 2 16.2116 28.4795 14.459 
281 2 19.7167 26.7269 12.7064 
282 2 21.4692 28.4795 12.7064 
283 2 21.4692 26.7269 14.459 
284 2 19.7167 28.4795 14.459 
285 2 23.2218 26.7269 12.7064 
286 2 24.9744 28.4795 12.7064 
287 2 24.9744 26.7269 14.459 
288 2 23.2218 28.4795 14.459 
289 2 26.7269 26.7269 12.7064 
290 2 28.4795 28.4795 12.7064 
291 2 28.4795 26.7269 14.459 
292 2 26.7269 28.4795 14.459 
293 2 30.2321 26.7269 12.7064 
294 2 31.9846 28.4795 12.7064 
295 2 31.9846 26.7269 14.459 
296 2 30.2321 28.4795 14.459 
297 2 33.7372 26.7269 12.7064 
298 2 35.4897 28.4795 12.7064 
299 2 35.4897 26.7269 14.459 
300 2 33.7372 28.4795 14.459 
301 2 37.2423 26.7269 12.7064 
302 2 38.9949 28.4795 12.7064 
303 2 38.9949 26.7269 14.459 
304 2 37.2423 28.4795 14.459 
305 2 40.7474 26.7269 12.7064 
306 2 42.5 28.4795 12.7064 
307 2 42.5 26.7269 14.459 
308 2 40.7474 28.4795 14.459 
309 2 44.2526 26.7269 12.7064 
310 2 46.0051 28.4795 12.7064 
311 2 46.0051 26.7269 14.459 
312 2 44.2526 28.4795 14.459 
313 2 47.7577 26.7269 12.7064 
314 2 49.5103 28.4795 12.7064 
315 2 49.5103 26.7269 14.459 
316 2 47.7577 28.4795 14.459 
317 2 51.2628 26.7269 12.7064 
318 2 53.0154 28.4795 12.7064 
319 2 53.0154 26.7269 14.459 
320 2 51.2628 28.4795 14.459 
321 2 54.7679 26.7269 12.7064 
322 2 56.5205 28.4795 12.7064 
323 2 56.5205 26.7269 14.459 
324 2 54.7679 28.4795 14.459 
325 2 58.2731 26.7269 12.7064 
326 2 60.0256 28.4795 12.7064 
327 2 60.0256 26.7269 14.459 
328 2 58.2731 28.4795 14.459 
329 2 61.7782 26.7269 12.7064 
330 2 63.5308 28.4795 12.7064 
331 2 63.5308 26.7269 14.459 
332 2 61.7782 28.4795 14.459 
333 2 65.2833 26.7269 12.7064 
334 2 67.0359 28.4795 12.7064 
335 2 67.0359 26.7269 14.459 
336 2 65.2833 28.4795 14.459 
337 2 68.7884 26.7269 12.7064 
338 2 70.541 28.4795 12.7064 
339 2 70.541 26.7269 14.459 
340 2 68.7884 28.4795 14.459 
341 2 12.7064 30.2321 12.7064 
342 2 14.459 31.9846 12.7064 
343 2 14.459 30.2321 14.459 
344 2 12.7064 31.9846 14.459 
345 2 16.2116 30.2321 12.7064 
346 2 17.9641 31.9846 12.7064 
347 2 17.9641 30.2321 14.459 
348 2 16.2116 31.9846 14.459 
349 2 19.7167 30.2321 12.7064 
350 2 21.4692 31.9846 12.7064 
351 2 21.4692 30.2321 14.459 
352 2 19.7167 31.9846 14.459 
353 2 23.2218 30.2321 12.7064 
354 2 24.9744 31.9846 12.7064 
355 2 24.9744 30.2321 14.459 
356 2 23.2218 31.9846 14.459 
357 2 26.7269 30.2321 12.7064 
358 2 28.4795 31.9846 12.7064 
359 2 28.4795 30.2321 14.459 
360 2 26.7269 31.9846 14.459 
361 2 30.2321 30.2321 12.7064 
362 2 31.9846 31.9846 12.7064 
363 2 31.9846 30.2321 14.459 
364 2 30.2321 31.9846 14.459 
365 2 33.7372 30.2321 12.7064 
366 2 35.4897 31.9846 12.7064 
367 2 35.4897 30.2321 14.459 
368 2 33.7372 31.9846 14.459 
369 2 37.2423 30.2321 12.7064 
370 2 38.9949 31.9846 12.7064 
371 2 38.9949 30.2321 14.459 
372 2 37.2423 31.9846 14.459 
373 2 40.7474 30.2321 12.7064 
374 2 42.5 31.9846 12.7064 
375 2 42.5 30.2321 14.459 
376 2 40.7474 31.9846 14.459 
377 2 44.2526 30.2321 12.7064 
378 2 46.0051 31.9846 12.7064 
379 2 46.0051 30.2321 14.459 
380 2 44.2526 31.9846 14.459 
381 2 47.7577 30.2321 12.7064 
382 2 49.5103 31.9846 12.7064 
383 2 49.5103 30.2321 14.459 
384 2 47.7577 31.9846 14.459 
385 2 51.2628 30.2321 12.7064 
386 2 53.0154 31.9846 12.7064 
387 2 53.0154 30.2321 14.459 
388 2 51.2628 31.9846 14.459 
389 2 54.7679 30.2321 12.7064 
390 2 56.5205 31.9846 12.7064 
391 2 56.5205 30.2321 14.459 
392 2 54.7679 31.9846 14.459 
393 2 58.2731 30.2321 12.7064 
394 2 60.0256 31.9846 12.7064 
395 2 60.0256 30.2321 14.459 
396 2 58.2731 31.9846 14.459 
397 2 61.7782 30.2321 12.7064 
398 2 63.5308 31.9846 12.7064 
399 2 63.5308 30.2321 14.459 
400 2 61.7782 31.9846 14.459 
401 2 65.2833 30.2321 12.7064 
402 2 67.0359 31.9846 12.7064 
403 2 67.0359 30.2321 14.459 
404 2 65.2833 31.9846 14.459 
405 2 68.7884 30.2321 12.7064 
406 2 70.541 31.9846 12.7064 
407 2 70.541 30.2321 14.459 
408 2 68.7884 31.9846 14.459 
409 2 12.7064 33.7372 12.7064 
410 2 14.459 35.4897 12.7064 
411 2 14.459 33.7372 14.459 
412 2 12.7064 35.4897 14.459 
413 2 16.2116 33.7372 12.7064 
414 2 17.9641 35.4897 12.7064 
415 2 17.9641 33.7372 14.459 
416 2 16.2116 35.4897 14.459 
417 2 19.7167 33.7372 12.7064 
418 2 21.4692 35.4897 12.7064 
419 2 21.4692 33.7372 14.459 
420 2 19.7167 35.4897 14.459 
421 2 23.2218 33.7372 12.7064 
422 2 24.9744 35.4897 12.7064 
423 2 24.9744 33.7372 14.459 
424 2 23.2218 35.4897 14.459 
425 2 26.7269 33.7372 12.7064 
426 2 28.4795 35.4897 12.7064 
427 2 28.4795 33.7372 14.459 
428 2 26.7269 35.4897 14.459 
429 2 30.2321 33.7372 12.7064 
430 2 31.9846 35.4897 12.7064 
431 2 31.9846 33.7372 14.459 
432 2 30.2321 35.4897 14.459 
433 2 33.7372 33.7372 12.7064 
434 2 35.4897 35.4897 12.7064 
435 2 35.4897 33.7372 14.459 
436 2 33.7372 35.4897 14.459 
437 2 37.2423 33.7372 12.7064 
438 2 38.9949 35.4897 12.7064 
439 2 38.9949 33.7372 14.459 
440 2 37.2423 35.4897 14.459 
441 2 40.7474 33.7372 12.7064 
442 2 42.5 35.4897 12.7064 
443 2 42.5 33.7372 14.459 
444 2 40.7474 35.4897 14.459 
445 2 44.2526 33.7372 12.7064 
446 2 46.0051 35.4897 12.7064 
447 2 46.0051 33.7372 14.459 
448 2 44.2526 35.4897 14.459 
449 2 47.7577 33.7372 12.7064 
450 2 49.5103 35.4897 12.7064 
451 2 49.5103 33.7372 14.459 
452 2 47.7577 35.4897 14.459 
453 2 51.2628 33.7372 12.7064 
454 2 53.0154 35.4897 12.7064 
455 2 53.0154 33.7372 14.459 
456 2 51.2628 35.4897 14.459 
457 2 54.7679 33.7372 12.7064 
458 2 56.5205 35.4897 12.7064 
459 2 56.5205 33.7372 14.459 
460 2 54.7679 35.4897 14.459 
461 2 58.2731 33.7372 12.7064 
462 2 60.0256 35.4897 12.7064 
463 2 60.0256 33.7372 14.459 
464 2 58.2731 35.4897 14.459 
465 2 61.7782 33.7372 12.7064 
466 2 63.5308 35.4897 12.7064 
467 2 63.5308 33.7372 14.459 
468 2 61.7782 35.4897 14.459 
469 2 65.2833 33.7372 12.7064 
470 2 67.0359 35.4897 12.7064 
471 2 67.0359 33.7372 14.459 
472 2 65.2833 35.4897 14.459 
473 2 68.7884 33.7372 12.7064 
474 2 70.541 35.4897 12.7064 
475 2 70.541 33.7372 14.459 
476 2 68.7884 35.4897 14.459 
477 2 12.7064 37.2423 12.7064 
478 2 14.459 38.9949 12.7064 
479 2 14.459 37.2423 14.459 
480 2 12.7064 38.9949 14.459 
481 2 16.2116 37.2423 12.7064 
482 2 17.9641 38.9949 12.7064 
483 2 17.9641 37.2423 14.459 
484 2 16.2116 38.9949 14.459 
485 2 19.7167 37.2423 12.7064 
486 2 21.4692 38.9949 12.7064 
487 2 21.4692 37.2423 14.459 
488 2 19.7167 38.9949 14.459 
489 2 23.2218 37.2423 12.7064 
490 2 24.9744 38.9949 12.7064 
491 2 24.9744 37.2423 14.459 
492 2 23.2218 38.9949 14.459 
493 2 26.7269 37.2423 12.7064 
494 2 28.4795 38.9949 12.7064 
495 2 28.4795 37.2423 14.459 
496 2 26.7269 38.9949 14.459 
497 2 30.2321 37.2423 12.7064 
498 2 31.9846 38.9949 12.7064 
499 2 31.9846 37.2423 14.459 
500 2 30.2321 38.9949 14.459 
501 2 33.7372 37.2423 12.7064 
502 2 35.4897 38.9949 12.7064 
503 2 35.4897 37.2423 14.459 
504 2 33.7372 38.9949 14.459 
505 2 37.2423 37.2423 12.7064 
506 2 38.9949 38.9949 12.7064 
507 2 38.9949 37.2423 14.459 
508 2 37.2423 38.9949 14.459 
509 2 40.7474 37.2423 12.7064 
510 2 42.5 38.9949 12.7064 
511 2 42.5 37.2423 14.459 
512 2 40.7474 38.9949 14.459 
513 2 44.2526 37.2423 12.7064 
514 2 46.0051 38.9949 12.7064 
515 2 46.0051 37.2423 14.459 
516 2 44.2526 38.9949 14.459 
517 2 47.7577 37.2423 12.7064 
518 2 49.5103 38.9949 12.7064 
519 2 49.5103 37.2423 14.459 
520 2 47.7577 38.9949 14.459 
521 2 51.2628 37.2423 12.7064 
522 2 53.0154 38.9949 12.7064 
523 2 53.0154 37.2423 14.459 
524 2 51.2628 38.9949 14.459 
525 2 54.7679 37.2423 12.7064 
526 2 56.5205 38.9949 12.7064 
527 2 56.5205 37.2423 14.459 
528 2 54.7679 38.9949 14.459 
529 2 58.2731 37.2423 12.7064 
530 2 60.0256 38.9949 12.7064 
531 2 60.0256 37.2423 14.459 
532 2 58.2731 38.9949 14.459 
533 2 61.7782 37.2423 12.7064 
534 2 63.5308 38.9949 12.7064 
535 2 63.5308 37.2423 14.459 
536 2 61.7782 38.9949 14.459 
537 2 65.2833 37.2423 12.7064 
538 2 67.0359 38.9949 12.7064 
539 2 67.0359 37.2423 14.459 
540 2 65.2833 38.9949 14.459 
541 2 68.7884 37.2423 12.7064 
542 2 70.541 38.9949 12.7064 
543 2 70.541 37.2423 14.459 
544 2 68.7884 38.9949 14.459 
545 2 12.7064 40.7474 12.7064 
546 2 14.459 42.5 12.7064 
547 2 14.459 40.7474 14.459 
548 2 12.7064 42.5 14.459 
549 2 16.2116 40.7474 12.7064 
550 2 17.9641 42.5 12.7064 
551 2 17.9641 40.7474 14.459 
552 2 16.2116 42.5 14.459 
553 2 19.7167 40.7474 12.7064 
554 2 21.4692 42.5 12.7064 
555 2 21.4692 40.7474 14.459 
556 2 19.7167 42.5 14.459 
557 2 23.2218 40.7474 12.7064 
558 2 24.9744 42.5 12.7064 
559 2 24.9744 40.7474 14.459 
560 2 23.2218 42.5 14.459 
561 2 26.7269 40.7474 12.7064 
562 2 28.4795 42.5 12.7064 
563 2 28.4795 40.7474 14.459 
564 2 26.7269 42.5 14.459 
565 2 30.2321 40.7474 12.7064 
566 2 31.9846 42.5 12.7064 
567 2 31.9846 40.7474 14.459 
568 2 30.2321 42.5 14.459 
569 2 33.7372 40.7474 12.7064 
570 2 35.4897 42.5 12.7064 
571 2 35.4897 40.7474 14.459 
572 2 33.7372 42.5 14.459 
573 2 37.2423 40.7474 12.7064 
574 2 38.9949 42.5 12.7064 
575 2 38.9949 40.7474 14.459 
576 2 37.2423 42.5 14.459 
577 2 40.7474 40.7474 12.7064 
578 2 42.5 42.5 12.7064 
579 2 42.5 40.7474 14.459 
580 2 40.7474 42.5 14.459 
581 2 44.2526 40.7474 12.7064 
582 2 46.0051 42.5 12.7064 
583 2 46.0051 40.7474 14.459 
584 2 44.2526 42.5 14.459 
585 2 47.7577 40.7474 12.7064 
586 2 49.5103 42.5 12.7064 
587 2 49.5103 40.7474 14.459 
588 2 47.7577 42.5 14.459 
589 2 51.2628 40.7474 12.7064 
590 2 53.0154 42.5 12.7064 
591 2 53.0154 40.7474 14.459 
592 2 51.2628 42.5 14.459 
593 2 54.7679 40.7474 12.7064 
594 2 56.5205 42.5 12.7064 
595 2 56.5205 40.7474 14.459 
596 2 54.7679 42.5 14.459 
597 2 58.2731 40.7474 12.7064 
598 2 60.0256 42.5 12.7064 
599 2 60.0256 40.7474 14.459 
600 2 58.2731 42.5 14.459 
601 2 61.7782 40.7474 12.7064 
602 2 63.5308 42.5 12.7064 
603 2 63.5308 40.7474 14.459 
604 2 61.7782 42.5 14.459 
605 2 65.2833 40.7474 12.7064 
606 2 67.0359 42.5 12.7064 
607 2 67.0359 40.7474 14.459 
608 2 65.2833 42.5 14.459 
609 2 68.7884 40.7474 12.7064 
610 2 70.541 42.5 12.7064 
611 2 70.541 40.7474 14.459 
612 2 68.7884 42.5 14.459 
613 2 12.7064 44.2526 12.7064 
614 2 14.459 46.0051 12.7064 
615 2 14.459 44.2526 14.459 
616 2 12.7064 46.0051 14.459 
617 2 16.2116 44.2526 12.7064 
618 2 17.9641 46.0051 12.7064 
619 2 17.9641 44.2526 14.459 
620 2 16.2116 46.0051 14.459 
621 2 19.7167 44.2526 12.7064 
622 2 21.4692 46.0051 12.7064 
623 2 21.4692 44.2526 14.459 
624 2 19.7167 46.0051 14.459 
625 2 23.2218 44.2526 12.7064 
626 2 24.9744 46.0051 12.7064 
627 2 24.9744 44.2526 14.459 
628 2 23.2218 46.0051 14.459 
629 2 26.7269 44.2526 12.7064 
630 2 28.4795 46.0051 12.7064 
631 2 28.4795 44.2526 14.459 
632 2 26.7269 46.0051 14.459 
633 2 30.2321 44.2526 12.7064 
634 2 31.9846 46.0051 12.7064 
635 2 31.9846 44.2526 14.459 
636 2 30.2321 46.0051 14.459 
637 2 33.7372 44.2526 12.7064 
638 2 35.4897 46.0051 12.7064 
639 2 35.4897 44.2526 14.459 
640 2 33.7372 46.0051 14.459 
641 2 37.2423 44.2526 12.7064 
642 2 38.9949 46.0051 12.7064 
643 2 38.9949 44.2526 14.459 
644 2 37.2423 46.0051 14.459 
645 2 40.7474 44.2526 12.7064 
646 2 42.5 46.0051 12.7064 
647 2 42.5 44.2526 14.459 
648 2 40.7474 46.0051 14.459 
649 2 44.2526 44.2526 12.7064 
650 2 46.0051 46.0051 12.7064 
651 2 46.0051 44.2526 14.459 
652 2 44.2526 46.0051 14.459 
653 2 47.7577 44.2526 12.7064 
654 2 49.5103 46.0051 12.7064 
655 2 49.5103 44.2526 14.459 
656 2 47.7577 46.0051 14.459 
657 2 51.2628 44.2526 12.7064 
658 2 53.0154 46.0051 12.7064 
659 2 53.0154 44.2526 14.459 
660 2 51.2628 46.0051 14.459 
661 2 54.7679 44.2526 12.7064 
662 2 56.5205 46.0051 12.7064 
663 2 56.5205 44.2526 14.459 
664 2 54.7679 46.0051 14.459 
665 2 58.2731 44.2526 12.7064 
666 2 60.0256 46.0051 12.7064 
667 2 60.0256 44.2526 14.459 
668 2 58.2731 46.0051 14.459 
669 2 61.7782 44.2526 12.7064 
670 2 63.5308 46.0051 12.7064 
671 2 63.5308 44.2526 14.459 
672 2 61.7782 46.0051 14.459 
673 2 65.2833 44.2526 12.7064 
674 2 67.0359 46.0051 12.7064 
675 2 67.0359 44.2526 14.459 
676 2 65.2833 46.0051 14.459 
677 2 68.7884 44.2526 12.7064 
678 2 70.541 46.0051 12.7064 
679 2 70.541 44.2526 14.459 
680 2 68.7884 46.0051 14.459 
681 2 12.7064 47.7577 12.7064 
682 2 14.459 49.5103 12.7064 
683 2 14.459 47.7577 14.459 
684 2 12.7064 49.5103 14.459 
685 2 16.2116 47.7577 12.7064 
686 2 17.9641 49.5103 12.7064 
687 2 17.9641 47.7577 14.459 
688 2 16.2116 49.5103 14.459 
689 2 19.7167 47.7577 12.7064 
690 2 21.4692 49.5103 12.7064 
691 2 21.4692 47.7577 14.459 
692 2 19.7167 49.5103 14.459 
693 2 23.2218 47.7577 12.7064 
694 2 24.9744 49.5103 12.7064 
695 2 24.9744 47.7577 14.459 
696 2 23.2218 49.5103 14.459 
697 2 26.7269 47.7577 12.7064 
698 2 28.4795 49.5103 12.7064 
699 2 28.4795 47.7577 14.459 
700 2 26.7269 49.5103 14.459 
701 2 30.2321 47.7577 12.7064 
702 2 31.9846 49.5103 12.7064 
703 2 31.9846 47.7577 14.459 
704 2 30.2321 49.5103 14.459 
705 2 33.7372 47.7577 12.7064 
706 2 35.4897 49.5103 12.7064 
707 2 35.4897 47.7577 14.459 
708 2 33.7372 49.5103 14.459 
709 2 37.2423 47.7577 12.7064 
710 2 38.9949 49.5103 12.7064 
711 2 38.9949 47.7577 14.459 
712 2 37.2423 49.5103 14.459 
713 2 40.7474 47.7577 12.7064 
714 2 42.5 49.5103 12.7064 
715 2 42.5 47.7577 14.459 
716 2 40.7474 49.5103 14.459 
717 2 44.2526 47.7577 12.7064 
718 2 46.0051 49.5103 12.7064 
719 2 46.0051 47.7577 14.459 
720 2 44.2526 49.5103 14.459 
721 2 47.7577 47.7577 12.7064 
722 2 49.5103 49.5103 12.7064 
723 2 49.5103 47.7577 14.459 
724 2 47.7577 49.5103 14.459 
725 2 51.2628 47.7577 12.7064 
726 2 53.0154 49.5103 12.7064 
727 2 53.0154 47.7577 14.459 
728 2 51.2628 49.5103 14.459 
729 2 54.7679 47.7577 12.7064 
730 2 56.5205 49.5103 12.7064 
731 2 56.5205 47.7577 14.459 
732 2 54.7679 49.5103 14.459 
733 2 58.2731 47.7577 12.7064 
734 2 60.0256 49.5103 12.7064 
735 2 60.0256 47.7577 14.459 
736 2 58.2731 49.5103 14.459 
737 2 61.7782 47.7577 12.7064 
738 2 63.5308 49.5103 12.7064 
739 2 63.5308 47.7577 14.459 
740 2 61.7782 49.5103 14.459 
741 2 65.2833 47.7577 12.7064 
742 2 67.0359 49.5103 12.7064 
743 2 67.0359 47.7577 14.459 
744 2 65.2833 49.5103 14.459 
745 2 68.7884 47.7577 12.7064 
746 2 70.541 49.5103 12.7064 
747 2 70.541 47.7577 14.459 
748 2 68.7884 49.5103 14.459 
749 2 12.7064 51.2628 12.7064 
750 2 14.459 53.0154 12.7064 
751 2 14.459 51.2628 14.459 
752 2 12.7064 53.0154 14.459 
753 2 16.2116 51.2628 12.7064 
754 2 17.9641 53.0154 12.7064 
755 2 17.9641 51.2628 14.459 
756 2 16.2116 53.0154 14.459 
757 2 19.7167 51.2628 12.7064 
758 2 21.4692 53.0154 12.7064 
759 2 21.4692 51.2628 14.459 
760 2 19.7167 53.0154 14.459 
761 2 23.2218 51.2628 12.7064 
762 2 24.9744 53.0154 12.7064 
763 2 24.9744 51.2628 14.459 
764 2 23.2218 53.0154 14.459 
765 2 26.7269 51.2628 12.7064 
766 2 28.4795 53.0154 12.7064 
767 2 28.4795 51.2628 14.459 
768 2 26.7269 53.0154 14.459 
769 2 30.2321 51.2628 12.7064 
770 2 31.9846 53.0154 12.7064 
771 2 31.9846 51.2628 14.459 
772 2 30.2321 53.0154 14.459 
773 2 33.7372 51.2628 12.7064 
774 2 35.4897 53.0154 12.7064 
775 2 35.4897 51.2628 14.459 
776 2 33.7372 53.0154 14.459 
777 2 37.2423 51.2628 12.7064 
778 2 38.9949 53.0154 12.7064 
779 2 38.9949 51.2628 14.459 
780 2 37.2423 53.0154 14.459 
781 2 40.7474 51.2628 12.7064 
782 2 42.5 53.0154 12.7064 
783 2 42.5 51.2628 14.459 
784 2 40.7474 53.0154 14.459 
785 2 44.2526 51.2628 12.7064 
786 2 46.0051 53.0154 12.7064 
787 2 46.0051 51.2628 14.459 
788 2 44.2526 53.0154 14.459 
789 2 47.7577 51.2628 12.7064 
790 2 49.5103 53.0154 12.7064 
791 2 49.5103 51.2628 14.459 
792 2 47.7577 53.0154 14.459 
793 2 51.2628 51.2628 12.7064 
794 2 53.0154 53.0154 12.7064 
795 2 53.0154 51.2628 14.459 
796 2 51.2628 53.0154 14.459 
797 2 54.7679 51.2628 12.7064 
798 2 56.5205 53.0154 12.7064 
799 2 56.5205 51.2628 14.459 
800 2 54.7679 53.0154 14.459 
801 2 58.2731 51.2628 12.7064 
802 2 60.0256 53.0154 12.7064 
803 2 60.0256 51.2628 14.459 
804 2 58.2731 53.0154 14.459 
805 2 61.7782 51.2628 12.7064 
806 2 63.5308 53.0154 12.7064 
807 2 63.5308 51.2628 14.459 
808 2 61.7782 53.0154 14.459 
809 2 65.2833 51.2628 12.7064 
810 2 67.0359 53.0154 12.7064 
811 2 67.0359 51.2628 14.459 
812 2 65.2833 53.0154 14.459 
813 2 68.7884 51.2628 12.7064 
814 2 70.541 53.0154 12.7064 
815 2 70.541 51.2628 14.459 
816 2 68.7884 53.0154 14.459 
817 2 12.7064 54.7679 12.7064 
818 2 14.459 56.5205 12.7064 
819 2 14.459 54.7679 14.459 
820 2 12.7064 56.5205 14.459 
821 2 16.2116 54.7679 12.7064 
822 2 17.9641 56.5205 12.7064 
823 2 17.9641 54.7679 14.459 
824 2 16.2116 56.5205 14.459 
825 2 19.7167 54.7679 12.7064 
826 2 21.4692 56.5205 12.7064 
827 2 21.4692 54.7679 14.459 
828 2 19.7167 56.5205 14.459 
829 2 23.2218 54.7679 12.7064 
830 2 24.9744 56.5205 12.7064 
831 2 24.9744 54.7679 14.459 
832 2 23.2218 56.5205 14.459 
833 2 26.7269 54.7679 12.7064 
834 2 28.4795 56.5205 12.7064 
835 2 28.4795 54.7679 14.459 
836 2 26.7269 56.5205 14.459 
837 2 30.2321 54.7679 12.7064 
838 2 31.9846 56.5205 12.7064 
839 2 31.9846 54.7679 14.459 
840 2 30.2321 56.5205 14.459 
841 2 33.7372 54.7679 12.7064 
842 2 35.4897 56.5205 12.7064 
843 2 35.4897 54.7679 14.459 
844 2 33.7372 56.5205 14.459 
845 2 37.2423 54.7679 12.7064 
846 2 38.9949 56.5205 12.7064 
847 2 38.9949 54.7679 14.459 
848 2 37.2423 56.5205 14.459 
849 2 40.7474 54.7679 12.7064 
850 2 42.5 56.5205 12.7064 
851 2 42.5 54.7679 14.459 
852 2 40.7474 56.5205 14.459 
853 2 44.2526 54.7679 12.7064 
854 2 46.0051 56.5205 12.7064 
855 2 46.0051 54.7679 14.459 
856 2 44.2526 56.5205 14.459 
857 2 47.7577 54.7679 12.7064 
858 2 49.5103 56.5205 12.7064 
859 2 49.5103 54.7679 14.459 
860 2 47.7577 56.5205 14.459 
861 2 51.2628 54.7679 12.7064 
862 2 53.0154 56.5205 12.7064 
863 2 53.0154 54.7679 14.459 
864 2 51.2628 56.5205 14.459 
865 2 54.7679 54.7679 12.7064 
866 2 56.5205 56.5205 12.7064 
867 2 56.5205 54.7679 14.459 
868 2 54.7679 56.5205 14.459 
869 2 58.2731 54.7679 12.7064 
870 2 60.0256 56.5205 12.7064 
871 2 60.0256 54.7679 14.459 
872 2 58.2731 56.5205 14.459 
873 2 61.7782 54.7679 12.7064 
874 2 63.5308 56.5205 12.7064 
875 2 63.5308 54.7679 14.459 
876 2 61.7782 56.5205 14.459 
877 2 65.2833 54.7679 12.7064 
878 2 67.0359 56.5205 12.7064 
879 2 67.0359 54.7679 14.459 
880 2 65.2833 56.5205 14.459 
881 2 68.7884 54.7679 12.7064 
882 2 70.541 56.5205 12.7064 
883 2 70.541 54.7679 14.459 
884 2 68.7884 56.5205 14.459 
885 2 12.7064 58.2731 12.7064 
886 2 14.459 60.0256 12.7064 
887 2 14.459 58.2731 14.459 
888 2 12.7064 60.0256 14.459 
889 2 16.2116 58.2731 12.7064 
890 2 17.9641 60.0256 12.7064 
891 2 17.9641 58.2731 14.459 
892 2 16.2116 60.0256 14.459 
893 2 19.7167 58.2731 12.7064 
894 2 21.4692 60.0256 12.7064 
895 2 21.4692 58.2731 14.459 
896 2 19.7167 60.0256 14.459 
897 2 23.2218 58.2731 12.7064 
898 2 24.9744 60.0256 12.7064 
899 2 24.9744 58.2731 14.459 
900 2 23.2218 60.0256 14.459 
901 2 26.7269 58.2731 12.7064 
902 2 28.4795 60.0256 12.7064 
903 2 28.4795 58.2731 14.459 
904 2 26.7269 60.0256 14.459 
905 2 30.2321 58.2731 12.7064 
906 2 31.9846 60.0256 12.7064 
907 2 31.9846 58.2731 14.459 
908 2 30.2321 60.0256 14.459 
909 2 33.7372 58.2731 12.7064 
910 2 35.4897 60.0256 12.7064 
911 2 35.4897 58.2731 14.459 
912 2 33.7372 60.0256 14.459 
913 2 37.2423 58.2731 12.7064 
914 2 38.9949 60.0256 12.7064 
915 2 38.9949 58.2731 14.459 
916 2 37.2423 60.0256 14.459 
917 2 40.7474 58.2731 12.7064 
918 2 42.5 60.0256 12.7064 
919 2 42.5 58.2731 14.459 
920 2 40.7474 60.0256 14.459 
921 2 44.2526 58.2731 12.7064 
922 2 46.0051 60.0256 12.7064 
923 2 46.0051 58.2731 14.459 
924 2 44.2526 60.0256 14.459 
925 2 47.7577 58.2731 12.7064 
926 2 49.5103 60.0256 12.7064 
927 2 49.5103 58.2731 14.459 
928 2 47.7577 60.0256 14.459 
929 2 51.2628 58.2731 12.7064 
930 2 53.0154 60.0256 12.7064 
931 2 53.0154 58.2731 14.459 
932 2 51.2628 60.0256 14.459 
933 2 54.7679 58.2731 12.7064 
934 2 56.5205 60.0256 12.7064 
935 2 56.5205 58.2731 14.459 
936 2 54.7679 60.0256 14.459 
937 2 58.2731 58.2731 12.7064 
938 2 60.0256 60.0256 12.7064 
939 2 60.0256 58.2731 14.459 
940 2 58.2731 60.0256 14.459 
941 2 61.7782 58.2731 12.7064 
942 2 63.5308 60.0256 12.7064 
943 2 63.5308 58.2731 14.459 
944 2 61.7782 60.0256 14.459 
945 2 65.2833 58.2731 12.7064 
946 2 67.0359 60.0256 12.7064 
947 2 67.0359 58.2731 14.459 
948 2 65.2833 60.0256 14.459 
949 2 68.7884 58.2731 12.7064 
950 2 70.541 60.0256 12.7064 
951 2 70.541 58.2731 14.459 
952 2 68.7884 60.0256 14.459 
953 2 12.7064 61.7782 12.7064 
954 2 14.459 63.5308 12.7064 
955 2 14.459 61.7782 14.459 
956 2 12.7064 63.5308 14.459 
957 2 16.2116 61.7782 12.7064 
958 2 17.9641 63.5308 12.7064 
959 2 17.9641 61.7782 14.459 
960 2 16.2116 63.5308 14.459 
961 2 19.7167 61.7782 12.7064 
962 2 21.4692 63.5308 12.7064 
963 2 21.4692 61.7782 14.459 
964 2 19.7167 63.5308 14.459 
965 2 23.2218 61.7782 12.7064 
966 2 24.9744 63.5308 12.7064 
967 2 24.9744 61.7782 14.459 
968 2 23.2218 63.5308 14.459 
969 2 26.7269 61.7782 12.7064 
970 2 28.4795 63.5308 12.7064 
971 2 28.4795 61.7782 14.459 
972 2 26.7269 63.5308 14.459 
973 2 30.2321 61.7782 12.7064 
974 2 31.9846 63.5308 12.7064 
975 2 31.9846 61.7782 14.459 
976 2 30.2321 63.5308 14.459 
977 2 33.7372 61.7782 12.7064 
978 2 35.4897 63.5308 12.7064 
979 2 35.4897 61.7782 14.459 
980 2 33.7372 63.5308 14.459 
981 2 37.2423 61.7782 12.7064 
982 2 38.9949 63.5308 12.7064 
983 2 38.9949 61.7782 14.459 
984 2 37.2423 63.5308 14.459 
985 2 40.7474 61.7782 12.7064 
986 2 42.5 63.5308 12.7064 
987 2 42.5 61.7782 14.459 
988 2 40.7474 63.5308 14.459 