ITEM: TIMESTEP
57
ITEM: NUMBER OF ATOMS
19652
ITEM: BOX BOUNDS pp pp pp
1.1497036569590009e+01 7.3502963430409707e+01
1.9913451475007232e+01 1.2731086716834787e+02
1.8774582099742549e+01 1.2002983665797062e+02
ITEM: ATOMS id type xu yu zu 
1 2 11.497 19.9135 18.7746 
2 2 13.3207 23.0722 18.7746 
3 2 13.3207 25.178 21.7527 
4 2 11.497 22.0193 21.7527 
5 2 15.1444 19.9135 18.7746 
6 2 16.9681 23.0722 18.7746 
7 2 16.9681 25.178 21.7527 
8 2 15.1444 22.0193 21.7527 
9 2 18.7919 19.9135 18.7746 
10 2 20.6156 23.0722 18.7746 
11 2 20.6156 25.178 21.7527 
12 2 18.7919 22.0193 21.7527 
13 2 22.4393 19.9135 18.7746 
14 2 24.263 23.0722 18.7746 
15 2 24.263 25.178 21.7527 
16 2 22.4393 22.0193 21.7527 
17 2 26.0867 19.9135 18.7746 
18 2 27.9104 23.0722 18.7746 
19 2 27.9104 25.178 21.7527 
20 2 26.0867 22.0193 21.7527 
21 2 29.7341 19.9135 18.7746 
22 2 31.5578 23.0722 18.7746 
23 2 31.5578 25.178 21.7527 
24 2 29.7341 22.0193 21.7527 
25 2 33.3815 19.9135 18.7746 
26 2 35.2052 23.0722 18.7746 
27 2 35.2052 25.178 21.7527 
28 2 33.3815 22.0193 21.7527 
29 2 37.0289 19.9135 18.7746 
30 2 38.8526 23.0722 18.7746 
31 2 38.8526 25.178 21.7527 
32 2 37.0289 22.0193 21.7527 
33 2 40.6763 19.9135 18.7746 
34 2 42.5 23.0722 18.7746 
35 2 42.5 25.178 21.7527 
36 2 40.6763 22.0193 21.7527 
37 2 44.3237 19.9135 18.7746 
38 2 46.1474 23.0722 18.7746 
39 2 46.1474 25.178 21.7527 
40 2 44.3237 22.0193 21.7527 
41 2 47.9711 19.9135 18.7746 
42 2 49.7948 23.0722 18.7746 
43 2 49.7948 25.178 21.7527 
44 2 47.9711 22.0193 21.7527 
45 2 51.6185 19.9135 18.7746 
46 2 53.4422 23.0722 18.7746 
47 2 53.4422 25.178 21.7527 
48 2 51.6185 22.0193 21.7527 
49 2 55.2659 19.9135 18.7746 
50 2 57.0896 23.0722 18.7746 
51 2 57.0896 25.178 21.7527 
52 2 55.2659 22.0193 21.7527 
53 2 58.9133 19.9135 18.7746 
54 2 60.737 23.0722 18.7746 
55 2 60.737 25.178 21.7527 
56 2 58.9133 22.0193 21.7527 
57 2 62.5607 19.9135 18.7746 
58 2 64.3844 23.0722 18.7746 
59 2 64.3844 25.178 21.7527 
60 2 62.5607 22.0193 21.7527 
61 2 66.2081 19.9135 18.7746 
62 2 68.0319 23.0722 18.7746 
63 2 68.0319 25.178 21.7527 
64 2 66.2081 22.0193 21.7527 
65 2 69.8556 19.9135 18.7746 
66 2 71.6793 23.0722 18.7746 
67 2 71.6793 25.178 21.7527 
68 2 69.8556 22.0193 21.7527 
69 2 11.497 26.2309 18.7746 
70 2 13.3207 29.3897 18.7746 
71 2 13.3207 31.4955 21.7527 
72 2 11.497 28.3368 21.7527 
73 2 15.1444 26.2309 18.7746 
74 2 16.9681 29.3897 18.7746 
75 2 16.9681 31.4955 21.7527 
76 2 15.1444 28.3368 21.7527 
77 2 18.7919 26.2309 18.7746 
78 2 20.6156 29.3897 18.7746 
79 2 20.6156 31.4955 21.7527 
80 2 18.7919 28.3368 21.7527 
81 2 22.4393 26.2309 18.7746 
82 2 24.263 29.3897 18.7746 
83 2 24.263 31.4955 21.7527 
84 2 22.4393 28.3368 21.7527 
85 2 26.0867 26.2309 18.7746 
86 2 27.9104 29.3897 18.7746 
87 2 27.9104 31.4955 21.7527 
88 2 26.0867 28.3368 21.7527 
89 2 29.7341 26.2309 18.7746 
90 2 31.5578 29.3897 18.7746 
91 2 31.5578 31.4955 21.7527 
92 2 29.7341 28.3368 21.7527 
93 2 33.3815 26.2309 18.7746 
94 2 35.2052 29.3897 18.7746 
95 2 35.2052 31.4955 21.7527 
96 2 33.3815 28.3368 21.7527 
97 2 37.0289 26.2309 18.7746 
98 2 38.8526 29.3897 18.7746 
99 2 38.8526 31.4955 21.7527 
100 2 37.0289 28.3368 21.7527 
101 2 40.6763 26.2309 18.7746 
102 2 42.5 29.3897 18.7746 
103 2 42.5 31.4955 21.7527 
104 2 40.6763 28.3368 21.7527 
105 2 44.3237 26.2309 18.7746 
106 2 46.1474 29.3897 18.7746 
107 2 46.1474 31.4955 21.7527 
108 2 44.3237 28.3368 21.7527 
109 2 47.9711 26.2309 18.7746 
110 2 49.7948 29.3897 18.7746 
111 2 49.7948 31.4955 21.7527 
112 2 47.9711 28.3368 21.7527 
113 2 51.6185 26.2309 18.7746 
114 2 53.4422 29.3897 18.7746 
115 2 53.4422 31.4955 21.7527 
116 2 51.6185 28.3368 21.7527 
117 2 55.2659 26.2309 18.7746 
118 2 57.0896 29.3897 18.7746 
119 2 57.0896 31.4955 21.7527 
120 2 55.2659 28.3368 21.7527 
121 2 58.9133 26.2309 18.7746 
122 2 60.737 29.3897 18.7746 
123 2 60.737 31.4955 21.7527 
124 2 58.9133 28.3368 21.7527 
125 2 62.5607 26.2309 18.7746 
126 2 64.3844 29.3897 18.7746 
127 2 64.3844 31.4955 21.7527 
128 2 62.5607 28.3368 21.7527 
129 2 66.2081 26.2309 18.7746 
130 2 68.0319 29.3897 18.7746 
131 2 68.0319 31.4955 21.7527 
132 2 66.2081 28.3368 21.7527 
133 2 69.8556 26.2309 18.7746 
134 2 71.6793 29.3897 18.7746 
135 2 71.6793 31.4955 21.7527 
136 2 69.8556 28.3368 21.7527 
137 2 11.497 32.5484 18.7746 
138 2 13.3207 35.7072 18.7746 
139 2 13.3207 37.813 21.7527 
140 2 11.497 34.6543 21.7527 
141 2 15.1444 32.5484 18.7746 
142 2 16.9681 35.7072 18.7746 
143 2 16.9681 37.813 21.7527 
144 2 15.1444 34.6543 21.7527 
145 2 18.7919 32.5484 18.7746 
146 2 20.6156 35.7072 18.7746 
147 2 20.6156 37.813 21.7527 
148 2 18.7919 34.6543 21.7527 
149 2 22.4393 32.5484 18.7746 
150 2 24.263 35.7072 18.7746 
151 2 24.263 37.813 21.7527 
152 2 22.4393 34.6543 21.7527 
153 2 26.0867 32.5484 18.7746 
154 2 27.9104 35.7072 18.7746 
155 2 27.9104 37.813 21.7527 
156 2 26.0867 34.6543 21.7527 
157 2 29.7341 32.5484 18.7746 
158 2 31.5578 35.7072 18.7746 
159 2 31.5578 37.813 21.7527 
160 2 29.7341 34.6543 21.7527 
161 2 33.3815 32.5484 18.7746 
162 2 35.2052 35.7072 18.7746 
163 2 35.2052 37.813 21.7527 
164 2 33.3815 34.6543 21.7527 
165 2 37.0289 32.5484 18.7746 
166 2 38.8526 35.7072 18.7746 
167 2 38.8526 37.813 21.7527 
168 2 37.0289 34.6543 21.7527 
169 2 40.6763 32.5484 18.7746 
170 2 42.5 35.7072 18.7746 
171 2 42.5 37.813 21.7527 
172 2 40.6763 34.6543 21.7527 
173 2 44.3237 32.5484 18.7746 
174 2 46.1474 35.7072 18.7746 
175 2 46.1474 37.813 21.7527 
176 2 44.3237 34.6543 21.7527 
177 2 47.9711 32.5484 18.7746 
178 2 49.7948 35.7072 18.7746 
179 2 49.7948 37.813 21.7527 
180 2 47.9711 34.6543 21.7527 
181 2 51.6185 32.5484 18.7746 
182 2 53.4422 35.7072 18.7746 
183 2 53.4422 37.813 21.7527 
184 2 51.6185 34.6543 21.7527 
185 2 55.2659 32.5484 18.7746 
186 2 57.0896 35.7072 18.7746 
187 2 57.0896 37.813 21.7527 
188 2 55.2659 34.6543 21.7527 
189 2 58.9133 32.5484 18.7746 
190 2 60.737 35.7072 18.7746 
191 2 60.737 37.813 21.7527 
192 2 58.9133 34.6543 21.7527 
193 2 62.5607 32.5484 18.7746 
194 2 64.3844 35.7072 18.7746 
195 2 64.3844 37.813 21.7527 
196 2 62.5607 34.6543 21.7527 
197 2 66.2081 32.5484 18.7746 
198 2 68.0319 35.7072 18.7746 
199 2 68.0319 37.813 21.7527 
200 2 66.2081 34.6543 21.7527 
201 2 69.8556 32.5484 18.7746 
202 2 71.6793 35.7072 18.7746 
203 2 71.6793 37.813 21.7527 
204 2 69.8556 34.6543 21.7527 
205 2 11.497 38.8659 18.7746 
206 2 13.3207 42.0247 18.7746 
207 2 13.3207 44.1305 21.7527 
208 2 11.497 40.9718 21.7527 
209 2 15.1444 38.8659 18.7746 
210 2 16.9681 42.0247 18.7746 
211 2 16.9681 44.1305 21.7527 
212 2 15.1444 40.9718 21.7527 
213 2 18.7919 38.8659 18.7746 
214 2 20.6156 42.0247 18.7746 
215 2 20.6156 44.1305 21.7527 
216 2 18.7919 40.9718 21.7527 
217 2 22.4393 38.8659 18.7746 
218 2 24.263 42.0247 18.7746 
219 2 24.263 44.1305 21.7527 
220 2 22.4393 40.9718 21.7527 
221 2 26.0867 38.8659 18.7746 
222 2 27.9104 42.0247 18.7746 
223 2 27.9104 44.1305 21.7527 
224 2 26.0867 40.9718 21.7527 
225 2 29.7341 38.8659 18.7746 
226 2 31.5578 42.0247 18.7746 
227 2 31.5578 44.1305 21.7527 
228 2 29.7341 40.9718 21.7527 
229 2 33.3815 38.8659 18.7746 
230 2 35.2052 42.0247 18.7746 
231 2 35.2052 44.1305 21.7527 
232 2 33.3815 40.9718 21.7527 
233 2 37.0289 38.8659 18.7746 
234 2 38.8526 42.0247 18.7746 
235 2 38.8526 44.1305 21.7527 
236 2 37.0289 40.9718 21.7527 
237 2 40.6763 38.8659 18.7746 
238 2 42.5 42.0247 18.7746 
239 2 42.5 44.1305 21.7527 
240 2 40.6763 40.9718 21.7527 
241 2 44.3237 38.8659 18.7746 
242 2 46.1474 42.0247 18.7746 
243 2 46.1474 44.1305 21.7527 
244 2 44.3237 40.9718 21.7527 
245 2 47.9711 38.8659 18.7746 
246 2 49.7948 42.0247 18.7746 
247 2 49.7948 44.1305 21.7527 
248 2 47.9711 40.9718 21.7527 
249 2 51.6185 38.8659 18.7746 
250 2 53.4422 42.0247 18.7746 
251 2 53.4422 44.1305 21.7527 
252 2 51.6185 40.9718 21.7527 
253 2 55.2659 38.8659 18.7746 
254 2 57.0896 42.0247 18.7746 
255 2 57.0896 44.1305 21.7527 
256 2 55.2659 40.9718 21.7527 
257 2 58.9133 38.8659 18.7746 
258 2 60.737 42.0247 18.7746 
259 2 60.737 44.1305 21.7527 
260 2 58.9133 40.9718 21.7527 
261 2 62.5607 38.8659 18.7746 
262 2 64.3844 42.0247 18.7746 
263 2 64.3844 44.1305 21.7527 
264 2 62.5607 40.9718 21.7527 
265 2 66.2081 38.8659 18.7746 
266 2 68.0319 42.0247 18.7746 
267 2 68.0319 44.1305 21.7527 
268 2 66.2081 40.9718 21.7527 
269 2 69.8556 38.8659 18.7746 
270 2 71.6793 42.0247 18.7746 
271 2 71.6793 44.1305 21.7527 
272 2 69.8556 40.9718 21.7527 
273 2 11.497 45.1834 18.7746 
274 2 13.3207 48.3422 18.7746 
275 2 13.3207 50.448 21.7527 
276 2 11.497 47.2893 21.7527 
277 2 15.1444 45.1834 18.7746 
278 2 16.9681 48.3422 18.7746 
279 2 16.9681 50.448 21.7527 
280 2 15.1444 47.2893 21.7527 
281 2 18.7919 45.1834 18.7746 
282 2 20.6156 48.3422 18.7746 
283 2 20.6156 50.448 21.7527 
284 2 18.7919 47.2893 21.7527 
285 2 22.4393 45.1834 18.7746 
286 2 24.263 48.3422 18.7746 
287 2 24.263 50.448 21.7527 
288 2 22.4393 47.2893 21.7527 
289 2 26.0867 45.1834 18.7746 
290 2 27.9104 48.3422 18.7746 
291 2 27.9104 50.448 21.7527 
292 2 26.0867 47.2893 21.7527 
293 2 29.7341 45.1834 18.7746 
294 2 31.5578 48.3422 18.7746 
295 2 31.5578 50.448 21.7527 
296 2 29.7341 47.2893 21.7527 
297 2 33.3815 45.1834 18.7746 
298 2 35.2052 48.3422 18.7746 
299 2 35.2052 50.448 21.7527 
300 2 33.3815 47.2893 21.7527 
301 2 37.0289 45.1834 18.7746 
302 2 38.8526 48.3422 18.7746 
303 2 38.8526 50.448 21.7527 
304 2 37.0289 47.2893 21.7527 
305 2 40.6763 45.1834 18.7746 
306 2 42.5 48.3422 18.7746 
307 2 42.5 50.448 21.7527 
308 2 40.6763 47.2893 21.7527 
309 2 44.3237 45.1834 18.7746 
310 2 46.1474 48.3422 18.7746 
311 2 46.1474 50.448 21.7527 
312 2 44.3237 47.2893 21.7527 
313 2 47.9711 45.1834 18.7746 
314 2 49.7948 48.3422 18.7746 
315 2 49.7948 50.448 21.7527 
316 2 47.9711 47.2893 21.7527 
317 2 51.6185 45.1834 18.7746 
318 2 53.4422 48.3422 18.7746 
319 2 53.4422 50.448 21.7527 
320 2 51.6185 47.2893 21.7527 
321 2 55.2659 45.1834 18.7746 
322 2 57.0896 48.3422 18.7746 
323 2 57.0896 50.448 21.7527 
324 2 55.2659 47.2893 21.7527 
325 2 58.9133 45.1834 18.7746 
326 2 60.737 48.3422 18.7746 
327 2 60.737 50.448 21.7527 
328 2 58.9133 47.2893 21.7527 
329 2 62.5607 45.1834 18.7746 
330 2 64.3844 48.3422 18.7746 
331 2 64.3844 50.448 21.7527 
332 2 62.5607 47.2893 21.7527 
333 2 66.2081 45.1834 18.7746 
334 2 68.0319 48.3422 18.7746 
335 2 68.0319 50.448 21.7527 
336 2 66.2081 47.2893 21.7527 
337 2 69.8556 45.1834 18.7746 
338 2 71.6793 48.3422 18.7746 
339 2 71.6793 50.448 21.7527 
340 2 69.8556 47.2893 21.7527 
341 2 11.497 51.5009 18.7746 
342 2 13.3207 54.6597 18.7746 
343 2 13.3207 56.7655 21.7527 
344 2 11.497 53.6068 21.7527 
345 2 15.1444 51.5009 18.7746 
346 2 16.9681 54.6597 18.7746 
347 2 16.9681 56.7655 21.7527 
348 2 15.1444 53.6068 21.7527 
349 2 18.7919 51.5009 18.7746 
350 2 20.6156 54.6597 18.7746 
351 2 20.6156 56.7655 21.7527 
352 2 18.7919 53.6068 21.7527 
353 2 22.4393 51.5009 18.7746 
354 2 24.263 54.6597 18.7746 
355 2 24.263 56.7655 21.7527 
356 2 22.4393 53.6068 21.7527 
357 2 26.0867 51.5009 18.7746 
358 2 27.9104 54.6597 18.7746 
359 2 27.9104 56.7655 21.7527 
360 2 26.0867 53.6068 21.7527 
361 2 29.7341 51.5009 18.7746 
362 2 31.5578 54.6597 18.7746 
363 2 31.5578 56.7655 21.7527 
364 2 29.7341 53.6068 21.7527 
365 2 33.3815 51.5009 18.7746 
366 2 35.2052 54.6597 18.7746 
367 2 35.2052 56.7655 21.7527 
368 2 33.3815 53.6068 21.7527 
369 2 37.0289 51.5009 18.7746 
370 2 38.8526 54.6597 18.7746 
371 2 38.8526 56.7655 21.7527 
372 2 37.0289 53.6068 21.7527 
373 2 40.6763 51.5009 18.7746 
374 2 42.5 54.6597 18.7746 
375 2 42.5 56.7655 21.7527 
376 2 40.6763 53.6068 21.7527 
377 2 44.3237 51.5009 18.7746 
378 2 46.1474 54.6597 18.7746 
379 2 46.1474 56.7655 21.7527 
380 2 44.3237 53.6068 21.7527 
381 2 47.9711 51.5009 18.7746 
382 2 49.7948 54.6597 18.7746 
383 2 49.7948 56.7655 21.7527 
384 2 47.9711 53.6068 21.7527 
385 2 51.6185 51.5009 18.7746 
386 2 53.4422 54.6597 18.7746 
387 2 53.4422 56.7655 21.7527 
388 2 51.6185 53.6068 21.7527 
389 2 55.2659 51.5009 18.7746 
390 2 57.0896 54.6597 18.7746 
391 2 57.0896 56.7655 21.7527 
392 2 55.2659 53.6068 21.7527 
393 2 58.9133 51.5009 18.7746 
394 2 60.737 54.6597 18.7746 
395 2 60.737 56.7655 21.7527 
396 2 58.9133 53.6068 21.7527 
397 2 62.5607 51.5009 18.7746 
398 2 64.3844 54.6597 18.7746 
399 2 64.3844 56.7655 21.7527 
400 2 62.5607 53.6068 21.7527 
401 2 66.2081 51.5009 18.7746 
402 2 68.0319 54.6597 18.7746 
403 2 68.0319 56.7655 21.7527 
404 2 66.2081 53.6068 21.7527 
405 2 69.8556 51.5009 18.7746 
406 2 71.6793 54.6597 18.7746 
407 2 71.6793 56.7655 21.7527 
408 2 69.8556 53.6068 21.7527 
409 2 11.497 57.8184 18.7746 
410 2 13.3207 60.9772 18.7746 
411 2 13.3207 63.083 21.7527 
412 2 11.497 59.9243 21.7527 
413 2 15.1444 57.8184 18.7746 
414 2 16.9681 60.9772 18.7746 
415 2 16.9681 63.083 21.7527 
416 2 15.1444 59.9243 21.7527 
417 2 18.7919 57.8184 18.7746 
418 2 20.6156 60.9772 18.7746 
419 2 20.6156 63.083 21.7527 
420 2 18.7919 59.9243 21.7527 
421 2 22.4393 57.8184 18.7746 
422 2 24.263 60.9772 18.7746 
423 2 24.263 63.083 21.7527 
424 2 22.4393 59.9243 21.7527 
425 2 26.0867 57.8184 18.7746 
426 2 27.9104 60.9772 18.7746 
427 2 27.9104 63.083 21.7527 
428 2 26.0867 59.9243 21.7527 
429 2 29.7341 57.8184 18.7746 
430 2 31.5578 60.9772 18.7746 
431 2 31.5578 63.083 21.7527 
432 2 29.7341 59.9243 21.7527 
433 2 33.3815 57.8184 18.7746 
434 2 35.2052 60.9772 18.7746 
435 2 35.2052 63.083 21.7527 
436 2 33.3815 59.9243 21.7527 
437 2 37.0289 57.8184 18.7746 
438 2 38.8526 60.9772 18.7746 
439 2 38.8526 63.083 21.7527 
440 2 37.0289 59.9243 21.7527 
441 2 40.6763 57.8184 18.7746 
442 2 42.5 60.9772 18.7746 
443 2 42.5 63.083 21.7527 
444 2 40.6763 59.9243 21.7527 
445 2 44.3237 57.8184 18.7746 
446 2 46.1474 60.9772 18.7746 
447 2 46.1474 63.083 21.7527 
448 2 44.3237 59.9243 21.7527 
449 2 47.9711 57.8184 18.7746 
450 2 49.7948 60.9772 18.7746 
451 2 49.7948 63.083 21.7527 
452 2 47.9711 59.9243 21.7527 
453 2 51.6185 57.8184 18.7746 
454 2 53.4422 60.9772 18.7746 
455 2 53.4422 63.083 21.7527 
456 2 51.6185 59.9243 21.7527 
457 2 55.2659 57.8184 18.7746 
458 2 57.0896 60.9772 18.7746 
459 2 57.0896 63.083 21.7527 
460 2 55.2659 59.9243 21.7527 
461 2 58.9133 57.8184 18.7746 
462 2 60.737 60.9772 18.7746 
463 2 60.737 63.083 21.7527 
464 2 58.9133 59.9243 21.7527 
465 2 62.5607 57.8184 18.7746 
466 2 64.3844 60.9772 18.7746 
467 2 64.3844 63.083 21.7527 
468 2 62.5607 59.9243 21.7527 
469 2 66.2081 57.8184 18.7746 
470 2 68.0319 60.9772 18.7746 
471 2 68.0319 63.083 21.7527 
472 2 66.2081 59.9243 21.7527 
473 2 69.8556 57.8184 18.7746 
474 2 71.6793 60.9772 18.7746 
475 2 71.6793 63.083 21.7527 
476 2 69.8556 59.9243 21.7527 
477 2 11.497 64.1359 18.7746 
478 2 13.3207 67.2947 18.7746 
479 2 13.3207 69.4005 21.7527 
480 2 11.497 66.2417 21.7527 
481 2 15.1444 64.1359 18.7746 
482 2 16.9681 67.2947 18.7746 
483 2 16.9681 69.4005 21.7527 
484 2 15.1444 66.2417 21.7527 
485 2 18.7919 64.1359 18.7746 
486 2 20.6156 67.2947 18.7746 
487 2 20.6156 69.4005 21.7527 
488 2 18.7919 66.2417 21.7527 
489 2 22.4393 64.1359 18.7746 
490 2 24.263 67.2947 18.7746 
491 2 24.263 69.4005 21.7527 
492 2 22.4393 66.2417 21.7527 
493 2 26.0867 64.1359 18.7746 
494 2 27.9104 67.2947 18.7746 
495 2 27.9104 69.4005 21.7527 
496 2 26.0867 66.2417 21.7527 
497 2 29.7341 64.1359 18.7746 
498 2 31.5578 67.2947 18.7746 
499 2 31.5578 69.4005 21.7527 
500 2 29.7341 66.2417 21.7527 
501 2 33.3815 64.1359 18.7746 
502 2 35.2052 67.2947 18.7746 
503 2 35.2052 69.4005 21.7527 
504 2 33.3815 66.2417 21.7527 
505 2 37.0289 64.1359 18.7746 
506 2 38.8526 67.2947 18.7746 
507 2 38.8526 69.4005 21.7527 
508 2 37.0289 66.2417 21.7527 
509 2 40.6763 64.1359 18.7746 
510 2 42.5 67.2947 18.7746 
511 2 42.5 69.4005 21.7527 
512 2 40.6763 66.2417 21.7527 
513 2 44.3237 64.1359 18.7746 
514 2 46.1474 67.2947 18.7746 
515 2 46.1474 69.4005 21.7527 
516 2 44.3237 66.2417 21.7527 
517 2 47.9711 64.1359 18.7746 
518 2 49.7948 67.2947 18.7746 
519 2 49.7948 69.4005 21.7527 
520 2 47.9711 66.2417 21.7527 
521 2 51.6185 64.1359 18.7746 
522 2 53.4422 67.2947 18.7746 
523 2 53.4422 69.4005 21.7527 
524 2 51.6185 66.2417 21.7527 
525 2 55.2659 64.1359 18.7746 
526 2 57.0896 67.2947 18.7746 
527 2 57.0896 69.4005 21.7527 
528 2 55.2659 66.2417 21.7527 
529 2 58.9133 64.1359 18.7746 
530 2 60.737 67.2947 18.7746 
531 2 60.737 69.4005 21.7527 
532 2 58.9133 66.2417 21.7527 
533 2 62.5607 64.1359 18.7746 
534 2 64.3844 67.2947 18.7746 
535 2 64.3844 69.4005 21.7527 
536 2 62.5607 66.2417 21.7527 
537 2 66.2081 64.1359 18.7746 
538 2 68.0319 67.2947 18.7746 
539 2 68.0319 69.4005 21.7527 
540 2 66.2081 66.2417 21.7527 
541 2 69.8556 64.1359 18.7746 
542 2 71.6793 67.2947 18.7746 
543 2 71.6793 69.4005 21.7527 
544 2 69.8556 66.2417 21.7527 
545 2 11.497 70.4534 18.7746 
546 2 13.3207 73.6122 18.7746 
547 2 13.3207 75.718 21.7527 
548 2 11.497 72.5592 21.7527 
549 2 15.1444 70.4534 18.7746 
550 2 16.9681 73.6122 18.7746 
551 2 16.9681 75.718 21.7527 
552 2 15.1444 72.5592 21.7527 
553 2 18.7919 70.4534 18.7746 
554 2 20.6156 73.6122 18.7746 
555 2 20.6156 75.718 21.7527 
556 2 18.7919 72.5592 21.7527 
557 2 22.4393 70.4534 18.7746 
558 2 24.263 73.6122 18.7746 
559 2 24.263 75.718 21.7527 
560 2 22.4393 72.5592 21.7527 
561 2 26.0867 70.4534 18.7746 
562 2 27.9104 73.6122 18.7746 
563 2 27.9104 75.718 21.7527 
564 2 26.0867 72.5592 21.7527 
565 2 29.7341 70.4534 18.7746 
566 2 31.5578 73.6122 18.7746 
567 2 31.5578 75.718 21.7527 
568 2 29.7341 72.5592 21.7527 
569 2 33.3815 70.4534 18.7746 
570 2 35.2052 73.6122 18.7746 
571 2 35.2052 75.718 21.7527 
572 2 33.3815 72.5592 21.7527 
573 2 37.0289 70.4534 18.7746 
574 2 38.8526 73.6122 18.7746 
575 2 38.8526 75.718 21.7527 
576 2 37.0289 72.5592 21.7527 
577 2 40.6763 70.4534 18.7746 
578 2 42.5 73.6122 18.7746 
579 2 42.5 75.718 21.7527 
580 2 40.6763 72.5592 21.7527 
581 2 44.3237 70.4534 18.7746 
582 2 46.1474 73.6122 18.7746 
583 2 46.1474 75.718 21.7527 
584 2 44.3237 72.5592 21.7527 
585 2 47.9711 70.4534 18.7746 
586 2 49.7948 73.6122 18.7746 
587 2 49.7948 75.718 21.7527 
588 2 47.9711 72.5592 21.7527 
589 2 51.6185 70.4534 18.7746 
590 2 53.4422 73.6122 18.7746 
591 2 53.4422 75.718 21.7527 
592 2 51.6185 72.5592 21.7527 
593 2 55.2659 70.4534 18.7746 
594 2 57.0896 73.6122 18.7746 
595 2 57.0896 75.718 21.7527 
596 2 55.2659 72.5592 21.7527 
597 2 58.9133 70.4534 18.7746 
598 2 60.737 73.6122 18.7746 
599 2 60.737 75.718 21.7527 
600 2 58.9133 72.5592 21.7527 
601 2 62.5607 70.4534 18.7746 
602 2 64.3844 73.6122 18.7746 
603 2 64.3844 75.718 21.7527 
604 2 62.5607 72.5592 21.7527 
605 2 66.2081 70.4534 18.7746 
606 2 68.0319 73.6122 18.7746 
607 2 68.0319 75.718 21.7527 
608 2 66.2081 72.5592 21.7527 
609 2 69.8556 70.4534 18.7746 
610 2 71.6793 73.6122 18.7746 
611 2 71.6793 75.718 21.7527 
612 2 69.8556 72.5592 21.7527 
613 2 11.497 76.7709 18.7746 
614 2 13.3207 79.9297 18.7746 
615 2 13.3207 82.0355 21.7527 
616 2 11.497 78.8767 21.7527 
617 2 15.1444 76.7709 18.7746 
618 2 16.9681 79.9297 18.7746 
619 2 16.9681 82.0355 21.7527 
620 2 15.1444 78.8767 21.7527 
621 2 18.7919 76.7709 18.7746 
622 2 20.6156 79.9297 18.7746 
623 2 20.6156 82.0355 21.7527 
624 2 18.7919 78.8767 21.7527 
625 2 22.4393 76.7709 18.7746 
626 2 24.263 79.9297 18.7746 
627 2 24.263 82.0355 21.7527 
628 2 22.4393 78.8767 21.7527 
629 2 26.0867 76.7709 18.7746 
630 2 27.9104 79.9297 18.7746 
631 2 27.9104 82.0355 21.7527 
632 2 26.0867 78.8767 21.7527 
633 2 29.7341 76.7709 18.7746 
634 2 31.5578 79.9297 18.7746 
635 2 31.5578 82.0355 21.7527 
636 2 29.7341 78.8767 21.7527 
637 2 33.3815 76.7709 18.7746 
638 2 35.2052 79.9297 18.7746 
639 2 35.2052 82.0355 21.7527 
640 2 33.3815 78.8767 21.7527 
641 2 37.0289 76.7709 18.7746 
642 2 38.8526 79.9297 18.7746 
643 2 38.8526 82.0355 21.7527 
644 2 37.0289 78.8767 21.7527 
645 2 40.6763 76.7709 18.7746 
646 2 42.5 79.9297 18.7746 
647 2 42.5 82.0355 21.7527 
648 2 40.6763 78.8767 21.7527 
649 2 44.3237 76.7709 18.7746 
650 2 46.1474 79.9297 18.7746 
651 2 46.1474 82.0355 21.7527 
652 2 44.3237 78.8767 21.7527 
653 2 47.9711 76.7709 18.7746 
654 2 49.7948 79.9297 18.7746 
655 2 49.7948 82.0355 21.7527 
656 2 47.9711 78.8767 21.7527 
657 2 51.6185 76.7709 18.7746 
658 2 53.4422 79.9297 18.7746 
659 2 53.4422 82.0355 21.7527 
660 2 51.6185 78.8767 21.7527 
661 2 55.2659 76.7709 18.7746 
662 2 57.0896 79.9297 18.7746 
663 2 57.0896 82.0355 21.7527 
664 2 55.2659 78.8767 21.7527 
665 2 58.9133 76.7709 18.7746 
666 2 60.737 79.9297 18.7746 
667 2 60.737 82.0355 21.7527 
668 2 58.9133 78.8767 21.7527 
669 2 62.5607 76.7709 18.7746 
670 2 64.3844 79.9297 18.7746 
671 2 64.3844 82.0355 21.7527 
672 2 62.5607 78.8767 21.7527 
673 2 66.2081 76.7709 18.7746 
674 2 68.0319 79.9297 18.7746 
675 2 68.0319 82.0355 21.7527 
676 2 66.2081 78.8767 21.7527 
677 2 69.8556 76.7709 18.7746 
678 2 71.6793 79.9297 18.7746 
679 2 71.6793 82.0355 21.7527 
680 2 69.8556 78.8767 21.7527 
681 2 11.497 83.0884 18.7746 
682 2 13.3207 86.2471 18.7746 
683 2 13.3207 88.353 21.7527 
684 2 11.497 85.1942 21.7527 
685 2 15.1444 83.0884 18.7746 
686 2 16.9681 86.2471 18.7746 
687 2 16.9681 88.353 21.7527 
688 2 15.1444 85.1942 21.7527 
689 2 18.7919 83.0884 18.7746 
690 2 20.6156 86.2471 18.7746 
691 2 20.6156 88.353 21.7527 
692 2 18.7919 85.1942 21.7527 
693 2 22.4393 83.0884 18.7746 
694 2 24.263 86.2471 18.7746 
695 2 24.263 88.353 21.7527 
696 2 22.4393 85.1942 21.7527 
697 2 26.0867 83.0884 18.7746 
698 2 27.9104 86.2471 18.7746 
699 2 27.9104 88.353 21.7527 
700 2 26.0867 85.1942 21.7527 
701 2 29.7341 83.0884 18.7746 
702 2 31.5578 86.2471 18.7746 
703 2 31.5578 88.353 21.7527 
704 2 29.7341 85.1942 21.7527 
705 2 33.3815 83.0884 18.7746 
706 2 35.2052 86.2471 18.7746 
707 2 35.2052 88.353 21.7527 
708 2 33.3815 85.1942 21.7527 
709 2 37.0289 83.0884 18.7746 
710 2 38.8526 86.2471 18.7746 
711 2 38.8526 88.353 21.7527 
712 2 37.0289 85.1942 21.7527 
713 2 40.6763 83.0884 18.7746 
714 2 42.5 86.2471 18.7746 
715 2 42.5 88.353 21.7527 
716 2 40.6763 85.1942 21.7527 
717 2 44.3237 83.0884 18.7746 
718 2 46.1474 86.2471 18.7746 
719 2 46.1474 88.353 21.7527 
720 2 44.3237 85.1942 21.7527 
721 2 47.9711 83.0884 18.7746 
722 2 49.7948 86.2471 18.7746 
723 2 49.7948 88.353 21.7527 
724 2 47.9711 85.1942 21.7527 
725 2 51.6185 83.0884 18.7746 
726 2 53.4422 86.2471 18.7746 
727 2 53.4422 88.353 21.7527 
728 2 51.6185 85.1942 21.7527 
729 2 55.2659 83.0884 18.7746 
730 2 57.0896 86.2471 18.7746 
731 2 57.0896 88.353 21.7527 
732 2 55.2659 85.1942 21.7527 
733 2 58.9133 83.0884 18.7746 
734 2 60.737 86.2471 18.7746 
735 2 60.737 88.353 21.7527 
736 2 58.9133 85.1942 21.7527 
737 2 62.5607 83.0884 18.7746 
738 2 64.3844 86.2471 18.7746 
739 2 64.3844 88.353 21.7527 
740 2 62.5607 85.1942 21.7527 
741 2 66.2081 83.0884 18.7746 
742 2 68.0319 86.2471 18.7746 
743 2 68.0319 88.353 21.7527 
744 2 66.2081 85.1942 21.7527 
745 2 69.8556 83.0884 18.7746 
746 2 71.6793 86.2471 18.7746 
747 2 71.6793 88.353 21.7527 
748 2 69.8556 85.1942 21.7527 
749 2 11.497 89.4059 18.7746 
750 2 13.3207 92.5646 18.7746 
751 2 13.3207 94.6705 21.7527 
752 2 11.497 91.5117 21.7527 
753 2 15.1444 89.4059 18.7746 
754 2 16.9681 92.5646 18.7746 
755 2 16.9681 94.6705 21.7527 
756 2 15.1444 91.5117 21.7527 
757 2 18.7919 89.4059 18.7746 
758 2 20.6156 92.5646 18.7746 
759 2 20.6156 94.6705 21.7527 
760 2 18.7919 91.5117 21.7527 
761 2 22.4393 89.4059 18.7746 
762 2 24.263 92.5646 18.7746 
763 2 24.263 94.6705 21.7527 
764 2 22.4393 91.5117 21.7527 
765 2 26.0867 89.4059 18.7746 
766 2 27.9104 92.5646 18.7746 
767 2 27.9104 94.6705 21.7527 
768 2 26.0867 91.5117 21.7527 
769 2 29.7341 89.4059 18.7746 
770 2 31.5578 92.5646 18.7746 
771 2 31.5578 94.6705 21.7527 
772 2 29.7341 91.5117 21.7527 
773 2 33.3815 89.4059 18.7746 
774 2 35.2052 92.5646 18.7746 
775 2 35.2052 94.6705 21.7527 
776 2 33.3815 91.5117 21.7527 
777 2 37.0289 89.4059 18.7746 
778 2 38.8526 92.5646 18.7746 
779 2 38.8526 94.6705 21.7527 
780 2 37.0289 91.5117 21.7527 
781 2 40.6763 89.4059 18.7746 
782 2 42.5 92.5646 18.7746 
783 2 42.5 94.6705 21.7527 
784 2 40.6763 91.5117 21.7527 
785 2 44.3237 89.4059 18.7746 
786 2 46.1474 92.5646 18.7746 
787 2 46.1474 94.6705 21.7527 
788 2 44.3237 91.5117 21.7527 
789 2 47.9711 89.4059 18.7746 
790 2 49.7948 92.5646 18.7746 
791 2 49.7948 94.6705 21.7527 
792 2 47.9711 91.5117 21.7527 
793 2 51.6185 89.4059 18.7746 
794 2 53.4422 92.5646 18.7746 
795 2 53.4422 94.6705 21.7527 
796 2 51.6185 91.5117 21.7527 
797 2 55.2659 89.4059 18.7746 
798 2 57.0896 92.5646 18.7746 
799 2 57.0896 94.6705 21.7527 
800 2 55.2659 91.5117 21.7527 
801 2 58.9133 89.4059 18.7746 
802 2 60.737 92.5646 18.7746 
803 2 60.737 94.6705 21.7527 
804 2 58.9133 91.5117 21.7527 
805 2 62.5607 89.4059 18.7746 
806 2 64.3844 92.5646 18.7746 
807 2 64.3844 94.6705 21.7527 
808 2 62.5607 91.5117 21.7527 
809 2 66.2081 89.4059 18.7746 
810 2 68.0319 92.5646 18.7746 
811 2 68.0319 94.6705 21.7527 
812 2 66.2081 91.5117 21.7527 
813 2 69.8556 89.4059 18.7746 
814 2 71.6793 92.5646 18.7746 
815 2 71.6793 94.6705 21.7527 
816 2 69.8556 91.5117 21.7527 
817 2 11.497 95.7234 18.7746 
818 2 13.3207 98.8821 18.7746 
819 2 13.3207 100.988 21.7527 
820 2 11.497 97.8292 21.7527 
821 2 15.1444 95.7234 18.7746 
822 2 16.9681 98.8821 18.7746 
823 2 16.9681 100.988 21.7527 
824 2 15.1444 97.8292 21.7527 
825 2 18.7919 95.7234 18.7746 
826 2 20.6156 98.8821 18.7746 
827 2 20.6156 100.988 21.7527 
828 2 18.7919 97.8292 21.7527 
829 2 22.4393 95.7234 18.7746 
830 2 24.263 98.8821 18.7746 
831 2 24.263 100.988 21.7527 
832 2 22.4393 97.8292 21.7527 
833 2 26.0867 95.7234 18.7746 
834 2 27.9104 98.8821 18.7746 
835 2 27.9104 100.988 21.7527 
836 2 26.0867 97.8292 21.7527 
837 2 29.7341 95.7234 18.7746 
838 2 31.5578 98.8821 18.7746 
839 2 31.5578 100.988 21.7527 
840 2 29.7341 97.8292 21.7527 
841 2 33.3815 95.7234 18.7746 
842 2 35.2052 98.8821 18.7746 
843 2 35.2052 100.988 21.7527 
844 2 33.3815 97.8292 21.7527 
845 2 37.0289 95.7234 18.7746 
846 2 38.8526 98.8821 18.7746 
847 2 38.8526 100.988 21.7527 
848 2 37.0289 97.8292 21.7527 
849 2 40.6763 95.7234 18.7746 
850 2 42.5 98.8821 18.7746 
851 2 42.5 100.988 21.7527 
852 2 40.6763 97.8292 21.7527 
853 2 44.3237 95.7234 18.7746 
854 2 46.1474 98.8821 18.7746 
855 2 46.1474 100.988 21.7527 
856 2 44.3237 97.8292 21.7527 
857 2 47.9711 95.7234 18.7746 
858 2 49.7948 98.8821 18.7746 
859 2 49.7948 100.988 21.7527 
860 2 47.9711 97.8292 21.7527 
861 2 51.6185 95.7234 18.7746 
862 2 53.4422 98.8821 18.7746 
863 2 53.4422 100.988 21.7527 
864 2 51.6185 97.8292 21.7527 
865 2 55.2659 95.7234 18.7746 
866 2 57.0896 98.8821 18.7746 
867 2 57.0896 100.988 21.7527 
868 2 55.2659 97.8292 21.7527 
869 2 58.9133 95.7234 18.7746 
870 2 60.737 98.8821 18.7746 
871 2 60.737 100.988 21.7527 
872 2 58.9133 97.8292 21.7527 
873 2 62.5607 95.7234 18.7746 
874 2 64.3844 98.8821 18.7746 
875 2 64.3844 100.988 21.7527 
876 2 62.5607 97.8292 21.7527 
877 2 66.2081 95.7234 18.7746 
878 2 68.0319 98.8821 18.7746 
879 2 68.0319 100.988 21.7527 
880 2 66.2081 97.8292 21.7527 
881 2 69.8556 95.7234 18.7746 
882 2 71.6793 98.8821 18.7746 
883 2 71.6793 100.988 21.7527 
884 2 69.8556 97.8292 21.7527 
885 2 11.497 102.041 18.7746 
886 2 13.3207 105.2 18.7746 
887 2 13.3207 107.305 21.7527 
888 2 11.497 104.147 21.7527 
889 2 15.1444 102.041 18.7746 
890 2 16.9681 105.2 18.7746 
891 2 16.9681 107.305 21.7527 
892 2 15.1444 104.147 21.7527 
893 2 18.7919 102.041 18.7746 
894 2 20.6156 105.2 18.7746 
895 2 20.6156 107.305 21.7527 
896 2 18.7919 104.147 21.7527 
897 2 22.4393 102.041 18.7746 
898 2 24.263 105.2 18.7746 
899 2 24.263 107.305 21.7527 
900 2 22.4393 104.147 21.7527 
901 2 26.0867 102.041 18.7746 
902 2 27.9104 105.2 18.7746 
903 2 27.9104 107.305 21.7527 
904 2 26.0867 104.147 21.7527 
905 2 29.7341 102.041 18.7746 
906 2 31.5578 105.2 18.7746 
907 2 31.5578 107.305 21.7527 
908 2 29.7341 104.147 21.7527 
909 2 33.3815 102.041 18.7746 
910 2 35.2052 105.2 18.7746 
911 2 35.2052 107.305 21.7527 
912 2 33.3815 104.147 21.7527 
913 2 37.0289 102.041 18.7746 
914 2 38.8526 105.2 18.7746 
915 2 38.8526 107.305 21.7527 
916 2 37.0289 104.147 21.7527 
917 2 40.6763 102.041 18.7746 
918 2 42.5 105.2 18.7746 
919 2 42.5 107.305 21.7527 
920 2 40.6763 104.147 21.7527 
921 2 44.3237 102.041 18.7746 
922 2 46.1474 105.2 18.7746 
923 2 46.1474 107.305 21.7527 
924 2 44.3237 104.147 21.7527 
925 2 47.9711 102.041 18.7746 
926 2 49.7948 105.2 18.7746 
927 2 49.7948 107.305 21.7527 
928 2 47.9711 104.147 21.7527 
929 2 51.6185 102.041 18.7746 
930 2 53.4422 105.2 18.7746 
931 2 53.4422 107.305 21.7527 
932 2 51.6185 104.147 21.7527 
933 2 55.2659 102.041 18.7746 
934 2 57.0896 105.2 18.7746 
935 2 57.0896 107.305 21.7527 
936 2 55.2659 104.147 21.7527 
937 2 58.9133 102.041 18.7746 
938 2 60.737 105.2 18.7746 
939 2 60.737 107.305 21.7527 
940 2 58.9133 104.147 21.7527 
941 2 62.5607 102.041 18.7746 
942 2 64.3844 105.2 18.7746 
943 2 64.3844 107.305 21.7527 
944 2 62.5607 104.147 21.7527 
945 2 66.2081 102.041 18.7746 
946 2 68.0319 105.2 18.7746 
947 2 68.0319 107.305 21.7527 
948 2 66.2081 104.147 21.7527 
949 2 69.8556 102.041 18.7746 
950 2 71.6793 105.2 18.7746 
951 2 71.6793 107.305 21.7527 
952 2 69.8556 104.147 21.7527 
953 2 11.497 108.358 18.7746 
954 2 13.3207 111.517 18.7746 
955 2 13.3207 113.623 21.7527 
956 2 11.497 110.464 21.7527 
957 2 15.1444 108.358 18.7746 
958 2 16.9681 111.517 18.7746 
959 2 16.9681 113.623 21.7527 
960 2 15.1444 110.464 21.7527 
961 2 18.7919 108.358 18.7746 
962 2 20.6156 111.517 18.7746 
963 2 20.6156 113.623 21.7527 
964 2 18.7919 110.464 21.7527 
965 2 22.4393 108.358 18.7746 
966 2 24.263 111.517 18.7746 
967 2 24.263 113.623 21.7527 
968 2 22.4393 110.464 21.7527 
969 2 26.0867 108.358 18.7746 
970 2 27.9104 111.517 18.7746 
971 2 27.9104 113.623 21.7527 
972 2 26.0867 110.464 21.7527 
973 2 29.7341 108.358 18.7746 