ITEM: TIMESTEP
58
ITEM: NUMBER OF ATOMS
19652
ITEM: BOX BOUNDS pp pp pp
1.2112375082475154e+01 7.2887624917524548e+01
2.0979249043178175e+01 1.2624506960017690e+02
1.9779425683510294e+01 1.1902499307420288e+02
ITEM: ATOMS id type xu yu zu 
1 1 12.1124 20.9792 19.7794 
2 1 13.8999 24.0753 19.7794 
3 1 13.8999 26.1393 22.6984 
4 1 12.1124 23.0433 22.6984 
5 1 15.6874 20.9792 19.7794 
6 1 17.4749 24.0753 19.7794 
7 1 17.4749 26.1393 22.6984 
8 1 15.6874 23.0433 22.6984 
9 1 19.2624 20.9792 19.7794 
10 1 21.0499 24.0753 19.7794 
11 1 21.0499 26.1393 22.6984 
12 1 19.2624 23.0433 22.6984 
13 1 22.8374 20.9792 19.7794 
14 1 24.6249 24.0753 19.7794 
15 1 24.6249 26.1393 22.6984 
16 1 22.8374 23.0433 22.6984 
17 1 26.4124 20.9792 19.7794 
18 1 28.1999 24.0753 19.7794 
19 1 28.1999 26.1393 22.6984 
20 1 26.4124 23.0433 22.6984 
21 1 29.9874 20.9792 19.7794 
22 1 31.775 24.0753 19.7794 
23 1 31.775 26.1393 22.6984 
24 1 29.9874 23.0433 22.6984 
25 1 33.5625 20.9792 19.7794 
26 1 35.35 24.0753 19.7794 
27 1 35.35 26.1393 22.6984 
28 1 33.5625 23.0433 22.6984 
29 1 37.1375 20.9792 19.7794 
30 1 38.925 24.0753 19.7794 
31 1 38.925 26.1393 22.6984 
32 1 37.1375 23.0433 22.6984 
33 1 40.7125 20.9792 19.7794 
34 1 42.5 24.0753 19.7794 
35 1 42.5 26.1393 22.6984 
36 1 40.7125 23.0433 22.6984 
37 1 44.2875 20.9792 19.7794 
38 1 46.075 24.0753 19.7794 
39 1 46.075 26.1393 22.6984 
40 1 44.2875 23.0433 22.6984 
41 1 47.8625 20.9792 19.7794 
42 1 49.65 24.0753 19.7794 
43 1 49.65 26.1393 22.6984 
44 1 47.8625 23.0433 22.6984 
45 1 51.4375 20.9792 19.7794 
46 1 53.225 24.0753 19.7794 
47 1 53.225 26.1393 22.6984 
48 1 51.4375 23.0433 22.6984 
49 1 55.0126 20.9792 19.7794 
50 1 56.8001 24.0753 19.7794 
51 1 56.8001 26.1393 22.6984 
52 1 55.0126 23.0433 22.6984 
53 1 58.5876 20.9792 19.7794 
54 1 60.3751 24.0753 19.7794 
55 1 60.3751 26.1393 22.6984 
56 1 58.5876 23.0433 22.6984 
57 1 62.1626 20.9792 19.7794 
58 1 63.9501 24.0753 19.7794 
59 1 63.9501 26.1393 22.6984 
60 1 62.1626 23.0433 22.6984 
61 1 65.7376 20.9792 19.7794 
62 1 67.5251 24.0753 19.7794 
63 1 67.5251 26.1393 22.6984 
64 1 65.7376 23.0433 22.6984 
65 1 69.3126 20.9792 19.7794 
66 1 71.1001 24.0753 19.7794 
67 1 71.1001 26.1393 22.6984 
68 1 69.3126 23.0433 22.6984 
69 1 12.1124 27.1714 19.7794 
70 1 13.8999 30.2674 19.7794 
71 1 13.8999 32.3314 22.6984 
72 1 12.1124 29.2354 22.6984 
73 1 15.6874 27.1714 19.7794 
74 1 17.4749 30.2674 19.7794 
75 1 17.4749 32.3314 22.6984 
76 1 15.6874 29.2354 22.6984 
77 1 19.2624 27.1714 19.7794 
78 1 21.0499 30.2674 19.7794 
79 1 21.0499 32.3314 22.6984 
80 1 19.2624 29.2354 22.6984 
81 1 22.8374 27.1714 19.7794 
82 1 24.6249 30.2674 19.7794 
83 1 24.6249 32.3314 22.6984 
84 1 22.8374 29.2354 22.6984 
85 1 26.4124 27.1714 19.7794 
86 1 28.1999 30.2674 19.7794 
87 1 28.1999 32.3314 22.6984 
88 1 26.4124 29.2354 22.6984 
89 1 29.9874 27.1714 19.7794 
90 1 31.775 30.2674 19.7794 
91 1 31.775 32.3314 22.6984 
92 1 29.9874 29.2354 22.6984 
93 1 33.5625 27.1714 19.7794 
94 1 35.35 30.2674 19.7794 
95 1 35.35 32.3314 22.6984 
96 1 33.5625 29.2354 22.6984 
97 1 37.1375 27.1714 19.7794 
98 1 38.925 30.2674 19.7794 
99 1 38.925 32.3314 22.6984 
100 1 37.1375 29.2354 22.6984 
101 1 40.7125 27.1714 19.7794 
102 1 42.5 30.2674 19.7794 
103 1 42.5 32.3314 22.6984 
104 1 40.7125 29.2354 22.6984 
105 1 44.2875 27.1714 19.7794 
106 1 46.075 30.2674 19.7794 
107 1 46.075 32.3314 22.6984 
108 1 44.2875 29.2354 22.6984 
109 1 47.8625 27.1714 19.7794 
110 1 49.65 30.2674 19.7794 
111 1 49.65 32.3314 22.6984 
112 1 47.8625 29.2354 22.6984 
113 1 51.4375 27.1714 19.7794 
114 1 53.225 30.2674 19.7794 
115 1 53.225 32.3314 22.6984 
116 1 51.4375 29.2354 22.6984 
117 1 55.0126 27.1714 19.7794 
118 1 56.8001 30.2674 19.7794 
119 1 56.8001 32.3314 22.6984 
120 1 55.0126 29.2354 22.6984 
121 1 58.5876 27.1714 19.7794 
122 1 60.3751 30.2674 19.7794 
123 1 60.3751 32.3314 22.6984 
124 1 58.5876 29.2354 22.6984 
125 1 62.1626 27.1714 19.7794 
126 1 63.9501 30.2674 19.7794 
127 1 63.9501 32.3314 22.6984 
128 1 62.1626 29.2354 22.6984 
129 1 65.7376 27.1714 19.7794 
130 1 67.5251 30.2674 19.7794 
131 1 67.5251 32.3314 22.6984 
132 1 65.7376 29.2354 22.6984 
133 1 69.3126 27.1714 19.7794 
134 1 71.1001 30.2674 19.7794 
135 1 71.1001 32.3314 22.6984 
136 1 69.3126 29.2354 22.6984 
137 1 12.1124 33.3635 19.7794 
138 1 13.8999 36.4595 19.7794 
139 1 13.8999 38.5236 22.6984 
140 1 12.1124 35.4275 22.6984 
141 1 15.6874 33.3635 19.7794 
142 1 17.4749 36.4595 19.7794 
143 1 17.4749 38.5236 22.6984 
144 1 15.6874 35.4275 22.6984 
145 1 19.2624 33.3635 19.7794 
146 1 21.0499 36.4595 19.7794 
147 1 21.0499 38.5236 22.6984 
148 1 19.2624 35.4275 22.6984 
149 1 22.8374 33.3635 19.7794 
150 1 24.6249 36.4595 19.7794 
151 1 24.6249 38.5236 22.6984 
152 1 22.8374 35.4275 22.6984 
153 1 26.4124 33.3635 19.7794 
154 1 28.1999 36.4595 19.7794 
155 1 28.1999 38.5236 22.6984 
156 1 26.4124 35.4275 22.6984 
157 1 29.9874 33.3635 19.7794 
158 1 31.775 36.4595 19.7794 
159 1 31.775 38.5236 22.6984 
160 1 29.9874 35.4275 22.6984 
161 1 33.5625 33.3635 19.7794 
162 1 35.35 36.4595 19.7794 
163 1 35.35 38.5236 22.6984 
164 1 33.5625 35.4275 22.6984 
165 1 37.1375 33.3635 19.7794 
166 1 38.925 36.4595 19.7794 
167 1 38.925 38.5236 22.6984 
168 1 37.1375 35.4275 22.6984 
169 1 40.7125 33.3635 19.7794 
170 1 42.5 36.4595 19.7794 
171 1 42.5 38.5236 22.6984 
172 1 40.7125 35.4275 22.6984 
173 1 44.2875 33.3635 19.7794 
174 1 46.075 36.4595 19.7794 
175 1 46.075 38.5236 22.6984 
176 1 44.2875 35.4275 22.6984 
177 1 47.8625 33.3635 19.7794 
178 1 49.65 36.4595 19.7794 
179 1 49.65 38.5236 22.6984 
180 1 47.8625 35.4275 22.6984 
181 1 51.4375 33.3635 19.7794 
182 1 53.225 36.4595 19.7794 
183 1 53.225 38.5236 22.6984 
184 1 51.4375 35.4275 22.6984 
185 1 55.0126 33.3635 19.7794 
186 1 56.8001 36.4595 19.7794 
187 1 56.8001 38.5236 22.6984 
188 1 55.0126 35.4275 22.6984 
189 1 58.5876 33.3635 19.7794 
190 1 60.3751 36.4595 19.7794 
191 1 60.3751 38.5236 22.6984 
192 1 58.5876 35.4275 22.6984 
193 1 62.1626 33.3635 19.7794 
194 1 63.9501 36.4595 19.7794 
195 1 63.9501 38.5236 22.6984 
196 1 62.1626 35.4275 22.6984 
197 1 65.7376 33.3635 19.7794 
198 1 67.5251 36.4595 19.7794 
199 1 67.5251 38.5236 22.6984 
200 1 65.7376 35.4275 22.6984 
201 1 69.3126 33.3635 19.7794 
202 1 71.1001 36.4595 19.7794 
203 1 71.1001 38.5236 22.6984 
204 1 69.3126 35.4275 22.6984 
205 1 12.1124 39.5556 19.7794 
206 1 13.8999 42.6516 19.7794 
207 1 13.8999 44.7157 22.6984 
208 1 12.1124 41.6196 22.6984 
209 1 15.6874 39.5556 19.7794 
210 1 17.4749 42.6516 19.7794 
211 1 17.4749 44.7157 22.6984 
212 1 15.6874 41.6196 22.6984 
213 1 19.2624 39.5556 19.7794 
214 1 21.0499 42.6516 19.7794 
215 1 21.0499 44.7157 22.6984 
216 1 19.2624 41.6196 22.6984 
217 1 22.8374 39.5556 19.7794 
218 1 24.6249 42.6516 19.7794 
219 1 24.6249 44.7157 22.6984 
220 1 22.8374 41.6196 22.6984 
221 1 26.4124 39.5556 19.7794 
222 1 28.1999 42.6516 19.7794 
223 1 28.1999 44.7157 22.6984 
224 1 26.4124 41.6196 22.6984 
225 1 29.9874 39.5556 19.7794 
226 1 31.775 42.6516 19.7794 
227 1 31.775 44.7157 22.6984 
228 1 29.9874 41.6196 22.6984 
229 1 33.5625 39.5556 19.7794 
230 1 35.35 42.6516 19.7794 
231 1 35.35 44.7157 22.6984 
232 1 33.5625 41.6196 22.6984 
233 1 37.1375 39.5556 19.7794 
234 1 38.925 42.6516 19.7794 
235 1 38.925 44.7157 22.6984 
236 1 37.1375 41.6196 22.6984 
237 1 40.7125 39.5556 19.7794 
238 1 42.5 42.6516 19.7794 
239 1 42.5 44.7157 22.6984 
240 1 40.7125 41.6196 22.6984 
241 1 44.2875 39.5556 19.7794 
242 1 46.075 42.6516 19.7794 
243 1 46.075 44.7157 22.6984 
244 1 44.2875 41.6196 22.6984 
245 1 47.8625 39.5556 19.7794 
246 1 49.65 42.6516 19.7794 
247 1 49.65 44.7157 22.6984 
248 1 47.8625 41.6196 22.6984 
249 1 51.4375 39.5556 19.7794 
250 1 53.225 42.6516 19.7794 
251 1 53.225 44.7157 22.6984 
252 1 51.4375 41.6196 22.6984 
253 1 55.0126 39.5556 19.7794 
254 1 56.8001 42.6516 19.7794 
255 1 56.8001 44.7157 22.6984 
256 1 55.0126 41.6196 22.6984 
257 1 58.5876 39.5556 19.7794 
258 1 60.3751 42.6516 19.7794 
259 1 60.3751 44.7157 22.6984 
260 1 58.5876 41.6196 22.6984 
261 1 62.1626 39.5556 19.7794 
262 1 63.9501 42.6516 19.7794 
263 1 63.9501 44.7157 22.6984 
264 1 62.1626 41.6196 22.6984 
265 1 65.7376 39.5556 19.7794 
266 1 67.5251 42.6516 19.7794 
267 1 67.5251 44.7157 22.6984 
268 1 65.7376 41.6196 22.6984 
269 1 69.3126 39.5556 19.7794 
270 1 71.1001 42.6516 19.7794 
271 1 71.1001 44.7157 22.6984 
272 1 69.3126 41.6196 22.6984 
273 1 12.1124 45.7477 19.7794 
274 1 13.8999 48.8437 19.7794 
275 1 13.8999 50.9078 22.6984 
276 1 12.1124 47.8117 22.6984 
277 1 15.6874 45.7477 19.7794 
278 1 17.4749 48.8437 19.7794 
279 1 17.4749 50.9078 22.6984 
280 1 15.6874 47.8117 22.6984 
281 1 19.2624 45.7477 19.7794 
282 1 21.0499 48.8437 19.7794 
283 1 21.0499 50.9078 22.6984 
284 1 19.2624 47.8117 22.6984 
285 1 22.8374 45.7477 19.7794 
286 1 24.6249 48.8437 19.7794 
287 1 24.6249 50.9078 22.6984 
288 1 22.8374 47.8117 22.6984 
289 1 26.4124 45.7477 19.7794 
290 1 28.1999 48.8437 19.7794 
291 1 28.1999 50.9078 22.6984 
292 1 26.4124 47.8117 22.6984 
293 1 29.9874 45.7477 19.7794 
294 1 31.775 48.8437 19.7794 
295 1 31.775 50.9078 22.6984 
296 1 29.9874 47.8117 22.6984 
297 1 33.5625 45.7477 19.7794 
298 1 35.35 48.8437 19.7794 
299 1 35.35 50.9078 22.6984 
300 1 33.5625 47.8117 22.6984 
301 1 37.1375 45.7477 19.7794 
302 1 38.925 48.8437 19.7794 
303 1 38.925 50.9078 22.6984 
304 1 37.1375 47.8117 22.6984 
305 1 40.7125 45.7477 19.7794 
306 1 42.5 48.8437 19.7794 
307 1 42.5 50.9078 22.6984 
308 1 40.7125 47.8117 22.6984 
309 1 44.2875 45.7477 19.7794 
310 1 46.075 48.8437 19.7794 
311 1 46.075 50.9078 22.6984 
312 1 44.2875 47.8117 22.6984 
313 1 47.8625 45.7477 19.7794 
314 1 49.65 48.8437 19.7794 
315 1 49.65 50.9078 22.6984 
316 1 47.8625 47.8117 22.6984 
317 1 51.4375 45.7477 19.7794 
318 1 53.225 48.8437 19.7794 
319 1 53.225 50.9078 22.6984 
320 1 51.4375 47.8117 22.6984 
321 1 55.0126 45.7477 19.7794 
322 1 56.8001 48.8437 19.7794 
323 1 56.8001 50.9078 22.6984 
324 1 55.0126 47.8117 22.6984 
325 1 58.5876 45.7477 19.7794 
326 1 60.3751 48.8437 19.7794 
327 1 60.3751 50.9078 22.6984 
328 1 58.5876 47.8117 22.6984 
329 1 62.1626 45.7477 19.7794 
330 1 63.9501 48.8437 19.7794 
331 1 63.9501 50.9078 22.6984 
332 1 62.1626 47.8117 22.6984 
333 1 65.7376 45.7477 19.7794 
334 1 67.5251 48.8437 19.7794 
335 1 67.5251 50.9078 22.6984 
336 1 65.7376 47.8117 22.6984 
337 1 69.3126 45.7477 19.7794 
338 1 71.1001 48.8437 19.7794 
339 1 71.1001 50.9078 22.6984 
340 1 69.3126 47.8117 22.6984 
341 1 12.1124 51.9398 19.7794 
342 1 13.8999 55.0358 19.7794 
343 1 13.8999 57.0999 22.6984 
344 1 12.1124 54.0038 22.6984 
345 1 15.6874 51.9398 19.7794 
346 1 17.4749 55.0358 19.7794 
347 1 17.4749 57.0999 22.6984 
348 1 15.6874 54.0038 22.6984 
349 1 19.2624 51.9398 19.7794 
350 1 21.0499 55.0358 19.7794 
351 1 21.0499 57.0999 22.6984 
352 1 19.2624 54.0038 22.6984 
353 1 22.8374 51.9398 19.7794 
354 1 24.6249 55.0358 19.7794 
355 1 24.6249 57.0999 22.6984 
356 1 22.8374 54.0038 22.6984 
357 1 26.4124 51.9398 19.7794 
358 1 28.1999 55.0358 19.7794 
359 1 28.1999 57.0999 22.6984 
360 1 26.4124 54.0038 22.6984 
361 1 29.9874 51.9398 19.7794 
362 1 31.775 55.0358 19.7794 
363 1 31.775 57.0999 22.6984 
364 1 29.9874 54.0038 22.6984 
365 1 33.5625 51.9398 19.7794 
366 1 35.35 55.0358 19.7794 
367 1 35.35 57.0999 22.6984 
368 1 33.5625 54.0038 22.6984 
369 1 37.1375 51.9398 19.7794 
370 1 38.925 55.0358 19.7794 
371 1 38.925 57.0999 22.6984 
372 1 37.1375 54.0038 22.6984 
373 1 40.7125 51.9398 19.7794 
374 1 42.5 55.0358 19.7794 
375 1 42.5 57.0999 22.6984 
376 1 40.7125 54.0038 22.6984 
377 1 44.2875 51.9398 19.7794 
378 1 46.075 55.0358 19.7794 
379 1 46.075 57.0999 22.6984 
380 1 44.2875 54.0038 22.6984 
381 1 47.8625 51.9398 19.7794 
382 1 49.65 55.0358 19.7794 
383 1 49.65 57.0999 22.6984 
384 1 47.8625 54.0038 22.6984 
385 1 51.4375 51.9398 19.7794 
386 1 53.225 55.0358 19.7794 
387 1 53.225 57.0999 22.6984 
388 1 51.4375 54.0038 22.6984 
389 1 55.0126 51.9398 19.7794 
390 1 56.8001 55.0358 19.7794 
391 1 56.8001 57.0999 22.6984 
392 1 55.0126 54.0038 22.6984 
393 1 58.5876 51.9398 19.7794 
394 1 60.3751 55.0358 19.7794 
395 1 60.3751 57.0999 22.6984 
396 1 58.5876 54.0038 22.6984 
397 1 62.1626 51.9398 19.7794 
398 1 63.9501 55.0358 19.7794 
399 1 63.9501 57.0999 22.6984 
400 1 62.1626 54.0038 22.6984 
401 1 65.7376 51.9398 19.7794 
402 1 67.5251 55.0358 19.7794 
403 1 67.5251 57.0999 22.6984 
404 1 65.7376 54.0038 22.6984 
405 1 69.3126 51.9398 19.7794 
406 1 71.1001 55.0358 19.7794 
407 1 71.1001 57.0999 22.6984 
408 1 69.3126 54.0038 22.6984 
409 1 12.1124 58.1319 19.7794 
410 1 13.8999 61.2279 19.7794 
411 1 13.8999 63.292 22.6984 
412 1 12.1124 60.1959 22.6984 
413 1 15.6874 58.1319 19.7794 
414 1 17.4749 61.2279 19.7794 
415 1 17.4749 63.292 22.6984 
416 1 15.6874 60.1959 22.6984 
417 1 19.2624 58.1319 19.7794 
418 1 21.0499 61.2279 19.7794 
419 1 21.0499 63.292 22.6984 
420 1 19.2624 60.1959 22.6984 
421 1 22.8374 58.1319 19.7794 
422 1 24.6249 61.2279 19.7794 
423 1 24.6249 63.292 22.6984 
424 1 22.8374 60.1959 22.6984 
425 1 26.4124 58.1319 19.7794 
426 1 28.1999 61.2279 19.7794 
427 1 28.1999 63.292 22.6984 
428 1 26.4124 60.1959 22.6984 
429 1 29.9874 58.1319 19.7794 
430 1 31.775 61.2279 19.7794 
431 1 31.775 63.292 22.6984 
432 1 29.9874 60.1959 22.6984 
433 1 33.5625 58.1319 19.7794 
434 1 35.35 61.2279 19.7794 
435 1 35.35 63.292 22.6984 
436 1 33.5625 60.1959 22.6984 
437 1 37.1375 58.1319 19.7794 
438 1 38.925 61.2279 19.7794 
439 1 38.925 63.292 22.6984 
440 1 37.1375 60.1959 22.6984 
441 1 40.7125 58.1319 19.7794 
442 1 42.5 61.2279 19.7794 
443 1 42.5 63.292 22.6984 
444 1 40.7125 60.1959 22.6984 
445 1 44.2875 58.1319 19.7794 
446 1 46.075 61.2279 19.7794 
447 1 46.075 63.292 22.6984 
448 1 44.2875 60.1959 22.6984 
449 1 47.8625 58.1319 19.7794 
450 1 49.65 61.2279 19.7794 
451 1 49.65 63.292 22.6984 
452 1 47.8625 60.1959 22.6984 
453 1 51.4375 58.1319 19.7794 
454 1 53.225 61.2279 19.7794 
455 1 53.225 63.292 22.6984 
456 1 51.4375 60.1959 22.6984 
457 1 55.0126 58.1319 19.7794 
458 1 56.8001 61.2279 19.7794 
459 1 56.8001 63.292 22.6984 
460 1 55.0126 60.1959 22.6984 
461 1 58.5876 58.1319 19.7794 
462 1 60.3751 61.2279 19.7794 
463 1 60.3751 63.292 22.6984 
464 1 58.5876 60.1959 22.6984 
465 1 62.1626 58.1319 19.7794 
466 1 63.9501 61.2279 19.7794 
467 1 63.9501 63.292 22.6984 
468 1 62.1626 60.1959 22.6984 
469 1 65.7376 58.1319 19.7794 
470 1 67.5251 61.2279 19.7794 
471 1 67.5251 63.292 22.6984 
472 1 65.7376 60.1959 22.6984 
473 1 69.3126 58.1319 19.7794 
474 1 71.1001 61.2279 19.7794 
475 1 71.1001 63.292 22.6984 
476 1 69.3126 60.1959 22.6984 
477 1 12.1124 64.324 19.7794 
478 1 13.8999 67.4201 19.7794 
479 1 13.8999 69.4841 22.6984 
480 1 12.1124 66.388 22.6984 
481 1 15.6874 64.324 19.7794 
482 1 17.4749 67.4201 19.7794 
483 1 17.4749 69.4841 22.6984 
484 1 15.6874 66.388 22.6984 
485 1 19.2624 64.324 19.7794 
486 1 21.0499 67.4201 19.7794 
487 1 21.0499 69.4841 22.6984 
488 1 19.2624 66.388 22.6984 
489 1 22.8374 64.324 19.7794 
490 1 24.6249 67.4201 19.7794 
491 1 24.6249 69.4841 22.6984 
492 1 22.8374 66.388 22.6984 
493 1 26.4124 64.324 19.7794 
494 1 28.1999 67.4201 19.7794 
495 1 28.1999 69.4841 22.6984 
496 1 26.4124 66.388 22.6984 
497 1 29.9874 64.324 19.7794 
498 1 31.775 67.4201 19.7794 
499 1 31.775 69.4841 22.6984 
500 1 29.9874 66.388 22.6984 
501 1 33.5625 64.324 19.7794 
502 1 35.35 67.4201 19.7794 
503 1 35.35 69.4841 22.6984 
504 1 33.5625 66.388 22.6984 
505 1 37.1375 64.324 19.7794 
506 1 38.925 67.4201 19.7794 
507 1 38.925 69.4841 22.6984 
508 1 37.1375 66.388 22.6984 
509 1 40.7125 64.324 19.7794 
510 1 42.5 67.4201 19.7794 
511 1 42.5 69.4841 22.6984 
512 1 40.7125 66.388 22.6984 
513 1 44.2875 64.324 19.7794 
514 1 46.075 67.4201 19.7794 
515 1 46.075 69.4841 22.6984 
516 1 44.2875 66.388 22.6984 
517 1 47.8625 64.324 19.7794 
518 1 49.65 67.4201 19.7794 
519 1 49.65 69.4841 22.6984 
520 1 47.8625 66.388 22.6984 
521 1 51.4375 64.324 19.7794 
522 1 53.225 67.4201 19.7794 
523 1 53.225 69.4841 22.6984 
524 1 51.4375 66.388 22.6984 
525 1 55.0126 64.324 19.7794 
526 1 56.8001 67.4201 19.7794 
527 1 56.8001 69.4841 22.6984 
528 1 55.0126 66.388 22.6984 
529 1 58.5876 64.324 19.7794 
530 1 60.3751 67.4201 19.7794 
531 1 60.3751 69.4841 22.6984 
532 1 58.5876 66.388 22.6984 
533 1 62.1626 64.324 19.7794 
534 1 63.9501 67.4201 19.7794 
535 1 63.9501 69.4841 22.6984 
536 1 62.1626 66.388 22.6984 
537 1 65.7376 64.324 19.7794 
538 1 67.5251 67.4201 19.7794 
539 1 67.5251 69.4841 22.6984 
540 1 65.7376 66.388 22.6984 
541 1 69.3126 64.324 19.7794 
542 1 71.1001 67.4201 19.7794 
543 1 71.1001 69.4841 22.6984 
544 1 69.3126 66.388 22.6984 
545 1 12.1124 70.5161 19.7794 
546 1 13.8999 73.6122 19.7794 
547 1 13.8999 75.6762 22.6984 
548 1 12.1124 72.5801 22.6984 
549 1 15.6874 70.5161 19.7794 
550 1 17.4749 73.6122 19.7794 
551 1 17.4749 75.6762 22.6984 
552 1 15.6874 72.5801 22.6984 
553 1 19.2624 70.5161 19.7794 
554 1 21.0499 73.6122 19.7794 
555 1 21.0499 75.6762 22.6984 
556 1 19.2624 72.5801 22.6984 
557 1 22.8374 70.5161 19.7794 
558 1 24.6249 73.6122 19.7794 
559 1 24.6249 75.6762 22.6984 
560 1 22.8374 72.5801 22.6984 
561 1 26.4124 70.5161 19.7794 
562 1 28.1999 73.6122 19.7794 
563 1 28.1999 75.6762 22.6984 
564 1 26.4124 72.5801 22.6984 
565 1 29.9874 70.5161 19.7794 
566 1 31.775 73.6122 19.7794 
567 1 31.775 75.6762 22.6984 
568 1 29.9874 72.5801 22.6984 
569 1 33.5625 70.5161 19.7794 
570 1 35.35 73.6122 19.7794 
571 1 35.35 75.6762 22.6984 
572 1 33.5625 72.5801 22.6984 
573 1 37.1375 70.5161 19.7794 
574 1 38.925 73.6122 19.7794 
575 1 38.925 75.6762 22.6984 
576 1 37.1375 72.5801 22.6984 
577 1 40.7125 70.5161 19.7794 
578 1 42.5 73.6122 19.7794 
579 1 42.5 75.6762 22.6984 
580 1 40.7125 72.5801 22.6984 
581 1 44.2875 70.5161 19.7794 
582 1 46.075 73.6122 19.7794 
583 1 46.075 75.6762 22.6984 
584 1 44.2875 72.5801 22.6984 
585 1 47.8625 70.5161 19.7794 
586 1 49.65 73.6122 19.7794 
587 1 49.65 75.6762 22.6984 
588 1 47.8625 72.5801 22.6984 
589 1 51.4375 70.5161 19.7794 
590 1 53.225 73.6122 19.7794 
591 1 53.225 75.6762 22.6984 
592 1 51.4375 72.5801 22.6984 
593 1 55.0126 70.5161 19.7794 
594 1 56.8001 73.6122 19.7794 
595 1 56.8001 75.6762 22.6984 
596 1 55.0126 72.5801 22.6984 
597 1 58.5876 70.5161 19.7794 
598 1 60.3751 73.6122 19.7794 
599 1 60.3751 75.6762 22.6984 
600 1 58.5876 72.5801 22.6984 
601 1 62.1626 70.5161 19.7794 
602 1 63.9501 73.6122 19.7794 
603 1 63.9501 75.6762 22.6984 
604 1 62.1626 72.5801 22.6984 
605 1 65.7376 70.5161 19.7794 
606 1 67.5251 73.6122 19.7794 
607 1 67.5251 75.6762 22.6984 
608 1 65.7376 72.5801 22.6984 
609 1 69.3126 70.5161 19.7794 
610 1 71.1001 73.6122 19.7794 
611 1 71.1001 75.6762 22.6984 
612 1 69.3126 72.5801 22.6984 
613 1 12.1124 76.7082 19.7794 
614 1 13.8999 79.8043 19.7794 
615 1 13.8999 81.8683 22.6984 
616 1 12.1124 78.7722 22.6984 
617 1 15.6874 76.7082 19.7794 
618 1 17.4749 79.8043 19.7794 
619 1 17.4749 81.8683 22.6984 
620 1 15.6874 78.7722 22.6984 
621 1 19.2624 76.7082 19.7794 
622 1 21.0499 79.8043 19.7794 
623 1 21.0499 81.8683 22.6984 
624 1 19.2624 78.7722 22.6984 
625 1 22.8374 76.7082 19.7794 
626 1 24.6249 79.8043 19.7794 
627 1 24.6249 81.8683 22.6984 
628 1 22.8374 78.7722 22.6984 
629 1 26.4124 76.7082 19.7794 
630 1 28.1999 79.8043 19.7794 
631 1 28.1999 81.8683 22.6984 
632 1 26.4124 78.7722 22.6984 
633 1 29.9874 76.7082 19.7794 
634 1 31.775 79.8043 19.7794 
635 1 31.775 81.8683 22.6984 
636 1 29.9874 78.7722 22.6984 
637 1 33.5625 76.7082 19.7794 
638 1 35.35 79.8043 19.7794 
639 1 35.35 81.8683 22.6984 
640 1 33.5625 78.7722 22.6984 
641 1 37.1375 76.7082 19.7794 
642 1 38.925 79.8043 19.7794 
643 1 38.925 81.8683 22.6984 
644 1 37.1375 78.7722 22.6984 
645 1 40.7125 76.7082 19.7794 
646 1 42.5 79.8043 19.7794 
647 1 42.5 81.8683 22.6984 
648 1 40.7125 78.7722 22.6984 
649 1 44.2875 76.7082 19.7794 
650 1 46.075 79.8043 19.7794 
651 1 46.075 81.8683 22.6984 
652 1 44.2875 78.7722 22.6984 
653 1 47.8625 76.7082 19.7794 
654 1 49.65 79.8043 19.7794 
655 1 49.65 81.8683 22.6984 
656 1 47.8625 78.7722 22.6984 
657 1 51.4375 76.7082 19.7794 
658 1 53.225 79.8043 19.7794 
659 1 53.225 81.8683 22.6984 
660 1 51.4375 78.7722 22.6984 
661 1 55.0126 76.7082 19.7794 
662 1 56.8001 79.8043 19.7794 
663 1 56.8001 81.8683 22.6984 
664 1 55.0126 78.7722 22.6984 
665 1 58.5876 76.7082 19.7794 
666 1 60.3751 79.8043 19.7794 
667 1 60.3751 81.8683 22.6984 
668 1 58.5876 78.7722 22.6984 
669 1 62.1626 76.7082 19.7794 
670 1 63.9501 79.8043 19.7794 
671 1 63.9501 81.8683 22.6984 
672 1 62.1626 78.7722 22.6984 
673 1 65.7376 76.7082 19.7794 
674 1 67.5251 79.8043 19.7794 
675 1 67.5251 81.8683 22.6984 
676 1 65.7376 78.7722 22.6984 
677 1 69.3126 76.7082 19.7794 
678 1 71.1001 79.8043 19.7794 
679 1 71.1001 81.8683 22.6984 
680 1 69.3126 78.7722 22.6984 
681 1 12.1124 82.9003 19.7794 
682 1 13.8999 85.9964 19.7794 
683 1 13.8999 88.0604 22.6984 
684 1 12.1124 84.9644 22.6984 
685 1 15.6874 82.9003 19.7794 
686 1 17.4749 85.9964 19.7794 
687 1 17.4749 88.0604 22.6984 
688 1 15.6874 84.9644 22.6984 
689 1 19.2624 82.9003 19.7794 
690 1 21.0499 85.9964 19.7794 
691 1 21.0499 88.0604 22.6984 
692 1 19.2624 84.9644 22.6984 
693 1 22.8374 82.9003 19.7794 
694 1 24.6249 85.9964 19.7794 
695 1 24.6249 88.0604 22.6984 
696 1 22.8374 84.9644 22.6984 
697 1 26.4124 82.9003 19.7794 
698 1 28.1999 85.9964 19.7794 
699 1 28.1999 88.0604 22.6984 
700 1 26.4124 84.9644 22.6984 
701 1 29.9874 82.9003 19.7794 
702 1 31.775 85.9964 19.7794 
703 1 31.775 88.0604 22.6984 
704 1 29.9874 84.9644 22.6984 
705 1 33.5625 82.9003 19.7794 
706 1 35.35 85.9964 19.7794 
707 1 35.35 88.0604 22.6984 
708 1 33.5625 84.9644 22.6984 
709 1 37.1375 82.9003 19.7794 
710 1 38.925 85.9964 19.7794 
711 1 38.925 88.0604 22.6984 
712 1 37.1375 84.9644 22.6984 
713 1 40.7125 82.9003 19.7794 
714 1 42.5 85.9964 19.7794 
715 1 42.5 88.0604 22.6984 
716 1 40.7125 84.9644 22.6984 
717 1 44.2875 82.9003 19.7794 
718 1 46.075 85.9964 19.7794 
719 1 46.075 88.0604 22.6984 
720 1 44.2875 84.9644 22.6984 
721 1 47.8625 82.9003 19.7794 
722 1 49.65 85.9964 19.7794 
723 1 49.65 88.0604 22.6984 
724 1 47.8625 84.9644 22.6984 
725 1 51.4375 82.9003 19.7794 
726 1 53.225 85.9964 19.7794 
727 1 53.225 88.0604 22.6984 
728 1 51.4375 84.9644 22.6984 
729 1 55.0126 82.9003 19.7794 
730 1 56.8001 85.9964 19.7794 
731 1 56.8001 88.0604 22.6984 
732 1 55.0126 84.9644 22.6984 
733 1 58.5876 82.9003 19.7794 
734 1 60.3751 85.9964 19.7794 
735 1 60.3751 88.0604 22.6984 
736 1 58.5876 84.9644 22.6984 
737 1 62.1626 82.9003 19.7794 
738 1 63.9501 85.9964 19.7794 
739 1 63.9501 88.0604 22.6984 
740 1 62.1626 84.9644 22.6984 
741 1 65.7376 82.9003 19.7794 
742 1 67.5251 85.9964 19.7794 
743 1 67.5251 88.0604 22.6984 
744 1 65.7376 84.9644 22.6984 
745 1 69.3126 82.9003 19.7794 
746 1 71.1001 85.9964 19.7794 
747 1 71.1001 88.0604 22.6984 
748 1 69.3126 84.9644 22.6984 
749 1 12.1124 89.0924 19.7794 
750 1 13.8999 92.1885 19.7794 
751 1 13.8999 94.2525 22.6984 
752 1 12.1124 91.1565 22.6984 
753 1 15.6874 89.0924 19.7794 
754 1 17.4749 92.1885 19.7794 
755 1 17.4749 94.2525 22.6984 
756 1 15.6874 91.1565 22.6984 
757 1 19.2624 89.0924 19.7794 
758 1 21.0499 92.1885 19.7794 
759 1 21.0499 94.2525 22.6984 
760 1 19.2624 91.1565 22.6984 
761 1 22.8374 89.0924 19.7794 
762 1 24.6249 92.1885 19.7794 
763 1 24.6249 94.2525 22.6984 
764 1 22.8374 91.1565 22.6984 
765 1 26.4124 89.0924 19.7794 
766 1 28.1999 92.1885 19.7794 
767 1 28.1999 94.2525 22.6984 
768 1 26.4124 91.1565 22.6984 
769 1 29.9874 89.0924 19.7794 
770 1 31.775 92.1885 19.7794 
771 1 31.775 94.2525 22.6984 
772 1 29.9874 91.1565 22.6984 
773 1 33.5625 89.0924 19.7794 
774 1 35.35 92.1885 19.7794 
775 1 35.35 94.2525 22.6984 
776 1 33.5625 91.1565 22.6984 
777 1 37.1375 89.0924 19.7794 
778 1 38.925 92.1885 19.7794 
779 1 38.925 94.2525 22.6984 
780 1 37.1375 91.1565 22.6984 
781 1 40.7125 89.0924 19.7794 
782 1 42.5 92.1885 19.7794 
783 1 42.5 94.2525 22.6984 
784 1 40.7125 91.1565 22.6984 
785 1 44.2875 89.0924 19.7794 
786 1 46.075 92.1885 19.7794 
787 1 46.075 94.2525 22.6984 
788 1 44.2875 91.1565 22.6984 
789 1 47.8625 89.0924 19.7794 
790 1 49.65 92.1885 19.7794 
791 1 49.65 94.2525 22.6984 
792 1 47.8625 91.1565 22.6984 
793 1 51.4375 89.0924 19.7794 
794 1 53.225 92.1885 19.7794 
795 1 53.225 94.2525 22.6984 
796 1 51.4375 91.1565 22.6984 
797 1 55.0126 89.0924 19.7794 
798 1 56.8001 92.1885 19.7794 
799 1 56.8001 94.2525 22.6984 
800 1 55.0126 91.1565 22.6984 
801 1 58.5876 89.0924 19.7794 
802 1 60.3751 92.1885 19.7794 
803 1 60.3751 94.2525 22.6984 
804 1 58.5876 91.1565 22.6984 
805 1 62.1626 89.0924 19.7794 
806 1 63.9501 92.1885 19.7794 
807 1 63.9501 94.2525 22.6984 
808 1 62.1626 91.1565 22.6984 
809 1 65.7376 89.0924 19.7794 
810 1 67.5251 92.1885 19.7794 
811 1 67.5251 94.2525 22.6984 
812 1 65.7376 91.1565 22.6984 
813 1 69.3126 89.0924 19.7794 
814 1 71.1001 92.1885 19.7794 
815 1 71.1001 94.2525 22.6984 
816 1 69.3126 91.1565 22.6984 
817 1 12.1124 95.2845 19.7794 
818 1 13.8999 98.3806 19.7794 
819 1 13.8999 100.445 22.6984 
820 1 12.1124 97.3486 22.6984 
821 1 15.6874 95.2845 19.7794 
822 1 17.4749 98.3806 19.7794 
823 1 17.4749 100.445 22.6984 
824 1 15.6874 97.3486 22.6984 
825 1 19.2624 95.2845 19.7794 
826 1 21.0499 98.3806 19.7794 
827 1 21.0499 100.445 22.6984 
828 1 19.2624 97.3486 22.6984 
829 1 22.8374 95.2845 19.7794 
830 1 24.6249 98.3806 19.7794 
831 1 24.6249 100.445 22.6984 
832 1 22.8374 97.3486 22.6984 
833 1 26.4124 95.2845 19.7794 
834 1 28.1999 98.3806 19.7794 
835 1 28.1999 100.445 22.6984 
836 1 26.4124 97.3486 22.6984 
837 1 29.9874 95.2845 19.7794 
838 1 31.775 98.3806 19.7794 
839 1 31.775 100.445 22.6984 
840 1 29.9874 97.3486 22.6984 
841 1 33.5625 95.2845 19.7794 
842 1 35.35 98.3806 19.7794 
843 1 35.35 100.445 22.6984 
844 1 33.5625 97.3486 22.6984 
845 1 37.1375 95.2845 19.7794 
846 1 38.925 98.3806 19.7794 
847 1 38.925 100.445 22.6984 
848 1 37.1375 97.3486 22.6984 
849 1 40.7125 95.2845 19.7794 
850 1 42.5 98.3806 19.7794 
851 1 42.5 100.445 22.6984 
852 1 40.7125 97.3486 22.6984 
853 1 44.2875 95.2845 19.7794 
854 1 46.075 98.3806 19.7794 
855 1 46.075 100.445 22.6984 
856 1 44.2875 97.3486 22.6984 
857 1 47.8625 95.2845 19.7794 
858 1 49.65 98.3806 19.7794 
859 1 49.65 100.445 22.6984 
860 1 47.8625 97.3486 22.6984 
861 1 51.4375 95.2845 19.7794 
862 1 53.225 98.3806 19.7794 
863 1 53.225 100.445 22.6984 
864 1 51.4375 97.3486 22.6984 
865 1 55.0126 95.2845 19.7794 
866 1 56.8001 98.3806 19.7794 
867 1 56.8001 100.445 22.6984 
868 1 55.0126 97.3486 22.6984 
869 1 58.5876 95.2845 19.7794 
870 1 60.3751 98.3806 19.7794 
871 1 60.3751 100.445 22.6984 
872 1 58.5876 97.3486 22.6984 
873 1 62.1626 95.2845 19.7794 
874 1 63.9501 98.3806 19.7794 
875 1 63.9501 100.445 22.6984 
876 1 62.1626 97.3486 22.6984 
877 1 65.7376 95.2845 19.7794 
878 1 67.5251 98.3806 19.7794 
879 1 67.5251 100.445 22.6984 
880 1 65.7376 97.3486 22.6984 
881 1 69.3126 95.2845 19.7794 
882 1 71.1001 98.3806 19.7794 
883 1 71.1001 100.445 22.6984 
884 1 69.3126 97.3486 22.6984 
885 1 12.1124 101.477 19.7794 
886 1 13.8999 104.573 19.7794 
887 1 13.8999 106.637 22.6984 
888 1 12.1124 103.541 22.6984 
889 1 15.6874 101.477 19.7794 
890 1 17.4749 104.573 19.7794 
891 1 17.4749 106.637 22.6984 
892 1 15.6874 103.541 22.6984 
893 1 19.2624 101.477 19.7794 
894 1 21.0499 104.573 19.7794 
895 1 21.0499 106.637 22.6984 
896 1 19.2624 103.541 22.6984 
897 1 22.8374 101.477 19.7794 
898 1 24.6249 104.573 19.7794 
899 1 24.6249 106.637 22.6984 
900 1 22.8374 103.541 22.6984 
901 1 26.4124 101.477 19.7794 
902 1 28.1999 104.573 19.7794 
903 1 28.1999 106.637 22.6984 
904 1 26.4124 103.541 22.6984 
905 1 29.9874 101.477 19.7794 
906 1 31.775 104.573 19.7794 
907 1 31.775 106.637 22.6984 
908 1 29.9874 103.541 22.6984 
909 1 33.5625 101.477 19.7794 
910 1 35.35 104.573 19.7794 
911 1 35.35 106.637 22.6984 
912 1 33.5625 103.541 22.6984 
913 1 37.1375 101.477 19.7794 
914 1 38.925 104.573 19.7794 
915 1 38.925 106.637 22.6984 
916 1 37.1375 103.541 22.6984 
917 1 40.7125 101.477 19.7794 
918 1 42.5 104.573 19.7794 
919 1 42.5 106.637 22.6984 
920 1 40.7125 103.541 22.6984 
921 1 44.2875 101.477 19.7794 
922 1 46.075 104.573 19.7794 
923 1 46.075 106.637 22.6984 
924 1 44.2875 103.541 22.6984 
925 1 47.8625 101.477 19.7794 
926 1 49.65 104.573 19.7794 
927 1 49.65 106.637 22.6984 
928 1 47.8625 103.541 22.6984 
929 1 51.4375 101.477 19.7794 
930 1 53.225 104.573 19.7794 
931 1 53.225 106.637 22.6984 
932 1 51.4375 103.541 22.6984 
933 1 55.0126 101.477 19.7794 
934 1 56.8001 104.573 19.7794 
935 1 56.8001 106.637 22.6984 
936 1 55.0126 103.541 22.6984 
937 1 58.5876 101.477 19.7794 
938 1 60.3751 104.573 19.7794 
939 1 60.3751 106.637 22.6984 
940 1 58.5876 103.541 22.6984 
941 1 62.1626 101.477 19.7794 
942 1 63.9501 104.573 19.7794 
943 1 63.9501 106.637 22.6984 
944 1 62.1626 103.541 22.6984 
945 1 65.7376 101.477 19.7794 
946 1 67.5251 104.573 19.7794 
947 1 67.5251 106.637 22.6984 
948 1 65.7376 103.541 22.6984 
949 1 69.3126 101.477 19.7794 
950 1 71.1001 104.573 19.7794 
951 1 71.1001 106.637 22.6984 
952 1 69.3126 103.541 22.6984 
953 1 12.1124 107.669 19.7794 
954 1 13.8999 110.765 19.7794 
955 1 13.8999 112.829 22.6984 
956 1 12.1124 109.733 22.6984 
957 1 15.6874 107.669 19.7794 
958 1 17.4749 110.765 19.7794 
959 1 17.4749 112.829 22.6984 
960 1 15.6874 109.733 22.6984 
961 1 19.2624 107.669 19.7794 
962 1 21.0499 110.765 19.7794 
963 1 21.0499 112.829 22.6984 
964 1 19.2624 109.733 22.6984 
965 1 22.8374 107.669 19.7794 
966 1 24.6249 110.765 19.7794 
967 1 24.6249 112.829 22.6984 
968 1 22.8374 109.733 22.6984 
969 1 26.4124 107.669 19.7794 
970 1 28.1999 110.765 19.7794 
971 1 28.1999 112.829 22.6984 
972 1 26.4124 109.733 22.6984 
973 1 29.9874 107.669 19.7794 
974 1 31.775 110.765 19.7794 
975 1 31.775 112.829 22.6984 