ITEM: TIMESTEP
45
ITEM: NUMBER OF ATOMS
9826
ITEM: BOX BOUNDS pp pp pp
8.9660841906592719e+00 7.6033915809340499e+01
8.9660841906592719e+00 7.6033915809340499e+01
8.9660841906592719e+00 7.6033915809340499e+01
ITEM: ATOMS id type xu yu zu 
1 2 8.96608 8.96608 8.96608 
2 2 10.9387 10.9387 10.9387 
3 2 12.9113 8.96608 8.96608 
4 2 14.8838 10.9387 10.9387 
5 2 16.8564 8.96608 8.96608 
6 2 18.829 10.9387 10.9387 
7 2 20.8016 8.96608 8.96608 
8 2 22.7742 10.9387 10.9387 
9 2 24.7468 8.96608 8.96608 
10 2 26.7193 10.9387 10.9387 
11 2 28.6919 8.96608 8.96608 
12 2 30.6645 10.9387 10.9387 
13 2 32.6371 8.96608 8.96608 
14 2 34.6097 10.9387 10.9387 
15 2 36.5823 8.96608 8.96608 
16 2 38.5548 10.9387 10.9387 
17 2 40.5274 8.96608 8.96608 
18 2 42.5 10.9387 10.9387 
19 2 44.4726 8.96608 8.96608 
20 2 46.4452 10.9387 10.9387 
21 2 48.4177 8.96608 8.96608 
22 2 50.3903 10.9387 10.9387 
23 2 52.3629 8.96608 8.96608 
24 2 54.3355 10.9387 10.9387 
25 2 56.3081 8.96608 8.96608 
26 2 58.2807 10.9387 10.9387 
27 2 60.2532 8.96608 8.96608 
28 2 62.2258 10.9387 10.9387 
29 2 64.1984 8.96608 8.96608 
30 2 66.171 10.9387 10.9387 
31 2 68.1436 8.96608 8.96608 
32 2 70.1162 10.9387 10.9387 
33 2 72.0887 8.96608 8.96608 
34 2 74.0613 10.9387 10.9387 
35 2 8.96608 12.9113 8.96608 
36 2 10.9387 14.8838 10.9387 
37 2 12.9113 12.9113 8.96608 
38 2 14.8838 14.8838 10.9387 
39 2 16.8564 12.9113 8.96608 
40 2 18.829 14.8838 10.9387 
41 2 20.8016 12.9113 8.96608 
42 2 22.7742 14.8838 10.9387 
43 2 24.7468 12.9113 8.96608 
44 2 26.7193 14.8838 10.9387 
45 2 28.6919 12.9113 8.96608 
46 2 30.6645 14.8838 10.9387 
47 2 32.6371 12.9113 8.96608 
48 2 34.6097 14.8838 10.9387 
49 2 36.5823 12.9113 8.96608 
50 2 38.5548 14.8838 10.9387 
51 2 40.5274 12.9113 8.96608 
52 2 42.5 14.8838 10.9387 
53 2 44.4726 12.9113 8.96608 
54 2 46.4452 14.8838 10.9387 
55 2 48.4177 12.9113 8.96608 
56 2 50.3903 14.8838 10.9387 
57 2 52.3629 12.9113 8.96608 
58 2 54.3355 14.8838 10.9387 
59 2 56.3081 12.9113 8.96608 
60 2 58.2807 14.8838 10.9387 
61 2 60.2532 12.9113 8.96608 
62 2 62.2258 14.8838 10.9387 
63 2 64.1984 12.9113 8.96608 
64 2 66.171 14.8838 10.9387 
65 2 68.1436 12.9113 8.96608 
66 2 70.1162 14.8838 10.9387 
67 2 72.0887 12.9113 8.96608 
68 2 74.0613 14.8838 10.9387 
69 2 8.96608 16.8564 8.96608 
70 2 10.9387 18.829 10.9387 
71 2 12.9113 16.8564 8.96608 
72 2 14.8838 18.829 10.9387 
73 2 16.8564 16.8564 8.96608 
74 2 18.829 18.829 10.9387 
75 2 20.8016 16.8564 8.96608 
76 2 22.7742 18.829 10.9387 
77 2 24.7468 16.8564 8.96608 
78 2 26.7193 18.829 10.9387 
79 2 28.6919 16.8564 8.96608 
80 2 30.6645 18.829 10.9387 
81 2 32.6371 16.8564 8.96608 
82 2 34.6097 18.829 10.9387 
83 2 36.5823 16.8564 8.96608 
84 2 38.5548 18.829 10.9387 
85 2 40.5274 16.8564 8.96608 
86 2 42.5 18.829 10.9387 
87 2 44.4726 16.8564 8.96608 
88 2 46.4452 18.829 10.9387 
89 2 48.4177 16.8564 8.96608 
90 2 50.3903 18.829 10.9387 
91 2 52.3629 16.8564 8.96608 
92 2 54.3355 18.829 10.9387 
93 2 56.3081 16.8564 8.96608 
94 2 58.2807 18.829 10.9387 
95 2 60.2532 16.8564 8.96608 
96 2 62.2258 18.829 10.9387 
97 2 64.1984 16.8564 8.96608 
98 2 66.171 18.829 10.9387 
99 2 68.1436 16.8564 8.96608 
100 2 70.1162 18.829 10.9387 
101 2 72.0887 16.8564 8.96608 
102 2 74.0613 18.829 10.9387 
103 2 8.96608 20.8016 8.96608 
104 2 10.9387 22.7742 10.9387 
105 2 12.9113 20.8016 8.96608 
106 2 14.8838 22.7742 10.9387 
107 2 16.8564 20.8016 8.96608 
108 2 18.829 22.7742 10.9387 
109 2 20.8016 20.8016 8.96608 
110 2 22.7742 22.7742 10.9387 
111 2 24.7468 20.8016 8.96608 
112 2 26.7193 22.7742 10.9387 
113 2 28.6919 20.8016 8.96608 
114 2 30.6645 22.7742 10.9387 
115 2 32.6371 20.8016 8.96608 
116 2 34.6097 22.7742 10.9387 
117 2 36.5823 20.8016 8.96608 
118 2 38.5548 22.7742 10.9387 
119 2 40.5274 20.8016 8.96608 
120 2 42.5 22.7742 10.9387 
121 2 44.4726 20.8016 8.96608 
122 2 46.4452 22.7742 10.9387 
123 2 48.4177 20.8016 8.96608 
124 2 50.3903 22.7742 10.9387 
125 2 52.3629 20.8016 8.96608 
126 2 54.3355 22.7742 10.9387 
127 2 56.3081 20.8016 8.96608 
128 2 58.2807 22.7742 10.9387 
129 2 60.2532 20.8016 8.96608 
130 2 62.2258 22.7742 10.9387 
131 2 64.1984 20.8016 8.96608 
132 2 66.171 22.7742 10.9387 
133 2 68.1436 20.8016 8.96608 
134 2 70.1162 22.7742 10.9387 
135 2 72.0887 20.8016 8.96608 
136 2 74.0613 22.7742 10.9387 
137 2 8.96608 24.7468 8.96608 
138 2 10.9387 26.7193 10.9387 
139 2 12.9113 24.7468 8.96608 
140 2 14.8838 26.7193 10.9387 
141 2 16.8564 24.7468 8.96608 
142 2 18.829 26.7193 10.9387 
143 2 20.8016 24.7468 8.96608 
144 2 22.7742 26.7193 10.9387 
145 2 24.7468 24.7468 8.96608 
146 2 26.7193 26.7193 10.9387 
147 2 28.6919 24.7468 8.96608 
148 2 30.6645 26.7193 10.9387 
149 2 32.6371 24.7468 8.96608 
150 2 34.6097 26.7193 10.9387 
151 2 36.5823 24.7468 8.96608 
152 2 38.5548 26.7193 10.9387 
153 2 40.5274 24.7468 8.96608 
154 2 42.5 26.7193 10.9387 
155 2 44.4726 24.7468 8.96608 
156 2 46.4452 26.7193 10.9387 
157 2 48.4177 24.7468 8.96608 
158 2 50.3903 26.7193 10.9387 
159 2 52.3629 24.7468 8.96608 
160 2 54.3355 26.7193 10.9387 
161 2 56.3081 24.7468 8.96608 
162 2 58.2807 26.7193 10.9387 
163 2 60.2532 24.7468 8.96608 
164 2 62.2258 26.7193 10.9387 
165 2 64.1984 24.7468 8.96608 
166 2 66.171 26.7193 10.9387 
167 2 68.1436 24.7468 8.96608 
168 2 70.1162 26.7193 10.9387 
169 2 72.0887 24.7468 8.96608 
170 2 74.0613 26.7193 10.9387 
171 2 8.96608 28.6919 8.96608 
172 2 10.9387 30.6645 10.9387 
173 2 12.9113 28.6919 8.96608 
174 2 14.8838 30.6645 10.9387 
175 2 16.8564 28.6919 8.96608 
176 2 18.829 30.6645 10.9387 
177 2 20.8016 28.6919 8.96608 
178 2 22.7742 30.6645 10.9387 
179 2 24.7468 28.6919 8.96608 
180 2 26.7193 30.6645 10.9387 
181 2 28.6919 28.6919 8.96608 
182 2 30.6645 30.6645 10.9387 
183 2 32.6371 28.6919 8.96608 
184 2 34.6097 30.6645 10.9387 
185 2 36.5823 28.6919 8.96608 
186 2 38.5548 30.6645 10.9387 
187 2 40.5274 28.6919 8.96608 
188 2 42.5 30.6645 10.9387 
189 2 44.4726 28.6919 8.96608 
190 2 46.4452 30.6645 10.9387 
191 2 48.4177 28.6919 8.96608 
192 2 50.3903 30.6645 10.9387 
193 2 52.3629 28.6919 8.96608 
194 2 54.3355 30.6645 10.9387 
195 2 56.3081 28.6919 8.96608 
196 2 58.2807 30.6645 10.9387 
197 2 60.2532 28.6919 8.96608 
198 2 62.2258 30.6645 10.9387 
199 2 64.1984 28.6919 8.96608 
200 2 66.171 30.6645 10.9387 
201 2 68.1436 28.6919 8.96608 
202 2 70.1162 30.6645 10.9387 
203 2 72.0887 28.6919 8.96608 
204 2 74.0613 30.6645 10.9387 
205 2 8.96608 32.6371 8.96608 
206 2 10.9387 34.6097 10.9387 
207 2 12.9113 32.6371 8.96608 
208 2 14.8838 34.6097 10.9387 
209 2 16.8564 32.6371 8.96608 
210 2 18.829 34.6097 10.9387 
211 2 20.8016 32.6371 8.96608 
212 2 22.7742 34.6097 10.9387 
213 2 24.7468 32.6371 8.96608 
214 2 26.7193 34.6097 10.9387 
215 2 28.6919 32.6371 8.96608 
216 2 30.6645 34.6097 10.9387 
217 2 32.6371 32.6371 8.96608 
218 2 34.6097 34.6097 10.9387 
219 2 36.5823 32.6371 8.96608 
220 2 38.5548 34.6097 10.9387 
221 2 40.5274 32.6371 8.96608 
222 2 42.5 34.6097 10.9387 
223 2 44.4726 32.6371 8.96608 
224 2 46.4452 34.6097 10.9387 
225 2 48.4177 32.6371 8.96608 
226 2 50.3903 34.6097 10.9387 
227 2 52.3629 32.6371 8.96608 
228 2 54.3355 34.6097 10.9387 
229 2 56.3081 32.6371 8.96608 
230 2 58.2807 34.6097 10.9387 
231 2 60.2532 32.6371 8.96608 
232 2 62.2258 34.6097 10.9387 
233 2 64.1984 32.6371 8.96608 
234 2 66.171 34.6097 10.9387 
235 2 68.1436 32.6371 8.96608 
236 2 70.1162 34.6097 10.9387 
237 2 72.0887 32.6371 8.96608 
238 2 74.0613 34.6097 10.9387 
239 2 8.96608 36.5823 8.96608 
240 2 10.9387 38.5548 10.9387 
241 2 12.9113 36.5823 8.96608 
242 2 14.8838 38.5548 10.9387 
243 2 16.8564 36.5823 8.96608 
244 2 18.829 38.5548 10.9387 
245 2 20.8016 36.5823 8.96608 
246 2 22.7742 38.5548 10.9387 
247 2 24.7468 36.5823 8.96608 
248 2 26.7193 38.5548 10.9387 
249 2 28.6919 36.5823 8.96608 
250 2 30.6645 38.5548 10.9387 
251 2 32.6371 36.5823 8.96608 
252 2 34.6097 38.5548 10.9387 
253 2 36.5823 36.5823 8.96608 
254 2 38.5548 38.5548 10.9387 
255 2 40.5274 36.5823 8.96608 
256 2 42.5 38.5548 10.9387 
257 2 44.4726 36.5823 8.96608 
258 2 46.4452 38.5548 10.9387 
259 2 48.4177 36.5823 8.96608 
260 2 50.3903 38.5548 10.9387 
261 2 52.3629 36.5823 8.96608 
262 2 54.3355 38.5548 10.9387 
263 2 56.3081 36.5823 8.96608 
264 2 58.2807 38.5548 10.9387 
265 2 60.2532 36.5823 8.96608 
266 2 62.2258 38.5548 10.9387 
267 2 64.1984 36.5823 8.96608 
268 2 66.171 38.5548 10.9387 
269 2 68.1436 36.5823 8.96608 
270 2 70.1162 38.5548 10.9387 
271 2 72.0887 36.5823 8.96608 
272 2 74.0613 38.5548 10.9387 
273 2 8.96608 40.5274 8.96608 
274 2 10.9387 42.5 10.9387 
275 2 12.9113 40.5274 8.96608 
276 2 14.8838 42.5 10.9387 
277 2 16.8564 40.5274 8.96608 
278 2 18.829 42.5 10.9387 
279 2 20.8016 40.5274 8.96608 
280 2 22.7742 42.5 10.9387 
281 2 24.7468 40.5274 8.96608 
282 2 26.7193 42.5 10.9387 
283 2 28.6919 40.5274 8.96608 
284 2 30.6645 42.5 10.9387 
285 2 32.6371 40.5274 8.96608 
286 2 34.6097 42.5 10.9387 
287 2 36.5823 40.5274 8.96608 
288 2 38.5548 42.5 10.9387 
289 2 40.5274 40.5274 8.96608 
290 2 42.5 42.5 10.9387 
291 2 44.4726 40.5274 8.96608 
292 2 46.4452 42.5 10.9387 
293 2 48.4177 40.5274 8.96608 
294 2 50.3903 42.5 10.9387 
295 2 52.3629 40.5274 8.96608 
296 2 54.3355 42.5 10.9387 
297 2 56.3081 40.5274 8.96608 
298 2 58.2807 42.5 10.9387 
299 2 60.2532 40.5274 8.96608 
300 2 62.2258 42.5 10.9387 
301 2 64.1984 40.5274 8.96608 
302 2 66.171 42.5 10.9387 
303 2 68.1436 40.5274 8.96608 
304 2 70.1162 42.5 10.9387 
305 2 72.0887 40.5274 8.96608 
306 2 74.0613 42.5 10.9387 
307 2 8.96608 44.4726 8.96608 
308 2 10.9387 46.4452 10.9387 
309 2 12.9113 44.4726 8.96608 
310 2 14.8838 46.4452 10.9387 
311 2 16.8564 44.4726 8.96608 
312 2 18.829 46.4452 10.9387 
313 2 20.8016 44.4726 8.96608 
314 2 22.7742 46.4452 10.9387 
315 2 24.7468 44.4726 8.96608 
316 2 26.7193 46.4452 10.9387 
317 2 28.6919 44.4726 8.96608 
318 2 30.6645 46.4452 10.9387 
319 2 32.6371 44.4726 8.96608 
320 2 34.6097 46.4452 10.9387 
321 2 36.5823 44.4726 8.96608 
322 2 38.5548 46.4452 10.9387 
323 2 40.5274 44.4726 8.96608 
324 2 42.5 46.4452 10.9387 
325 2 44.4726 44.4726 8.96608 
326 2 46.4452 46.4452 10.9387 
327 2 48.4177 44.4726 8.96608 
328 2 50.3903 46.4452 10.9387 
329 2 52.3629 44.4726 8.96608 
330 2 54.3355 46.4452 10.9387 
331 2 56.3081 44.4726 8.96608 
332 2 58.2807 46.4452 10.9387 
333 2 60.2532 44.4726 8.96608 
334 2 62.2258 46.4452 10.9387 
335 2 64.1984 44.4726 8.96608 
336 2 66.171 46.4452 10.9387 
337 2 68.1436 44.4726 8.96608 
338 2 70.1162 46.4452 10.9387 
339 2 72.0887 44.4726 8.96608 
340 2 74.0613 46.4452 10.9387 
341 2 8.96608 48.4177 8.96608 
342 2 10.9387 50.3903 10.9387 
343 2 12.9113 48.4177 8.96608 
344 2 14.8838 50.3903 10.9387 
345 2 16.8564 48.4177 8.96608 
346 2 18.829 50.3903 10.9387 
347 2 20.8016 48.4177 8.96608 
348 2 22.7742 50.3903 10.9387 
349 2 24.7468 48.4177 8.96608 
350 2 26.7193 50.3903 10.9387 
351 2 28.6919 48.4177 8.96608 
352 2 30.6645 50.3903 10.9387 
353 2 32.6371 48.4177 8.96608 
354 2 34.6097 50.3903 10.9387 
355 2 36.5823 48.4177 8.96608 
356 2 38.5548 50.3903 10.9387 
357 2 40.5274 48.4177 8.96608 
358 2 42.5 50.3903 10.9387 
359 2 44.4726 48.4177 8.96608 
360 2 46.4452 50.3903 10.9387 
361 2 48.4177 48.4177 8.96608 
362 2 50.3903 50.3903 10.9387 
363 2 52.3629 48.4177 8.96608 
364 2 54.3355 50.3903 10.9387 
365 2 56.3081 48.4177 8.96608 
366 2 58.2807 50.3903 10.9387 
367 2 60.2532 48.4177 8.96608 
368 2 62.2258 50.3903 10.9387 
369 2 64.1984 48.4177 8.96608 
370 2 66.171 50.3903 10.9387 
371 2 68.1436 48.4177 8.96608 
372 2 70.1162 50.3903 10.9387 
373 2 72.0887 48.4177 8.96608 
374 2 74.0613 50.3903 10.9387 
375 2 8.96608 52.3629 8.96608 
376 2 10.9387 54.3355 10.9387 
377 2 12.9113 52.3629 8.96608 
378 2 14.8838 54.3355 10.9387 
379 2 16.8564 52.3629 8.96608 
380 2 18.829 54.3355 10.9387 
381 2 20.8016 52.3629 8.96608 
382 2 22.7742 54.3355 10.9387 
383 2 24.7468 52.3629 8.96608 
384 2 26.7193 54.3355 10.9387 
385 2 28.6919 52.3629 8.96608 
386 2 30.6645 54.3355 10.9387 
387 2 32.6371 52.3629 8.96608 
388 2 34.6097 54.3355 10.9387 
389 2 36.5823 52.3629 8.96608 
390 2 38.5548 54.3355 10.9387 
391 2 40.5274 52.3629 8.96608 
392 2 42.5 54.3355 10.9387 
393 2 44.4726 52.3629 8.96608 
394 2 46.4452 54.3355 10.9387 
395 2 48.4177 52.3629 8.96608 
396 2 50.3903 54.3355 10.9387 
397 2 52.3629 52.3629 8.96608 
398 2 54.3355 54.3355 10.9387 
399 2 56.3081 52.3629 8.96608 
400 2 58.2807 54.3355 10.9387 
401 2 60.2532 52.3629 8.96608 
402 2 62.2258 54.3355 10.9387 
403 2 64.1984 52.3629 8.96608 
404 2 66.171 54.3355 10.9387 
405 2 68.1436 52.3629 8.96608 
406 2 70.1162 54.3355 10.9387 
407 2 72.0887 52.3629 8.96608 
408 2 74.0613 54.3355 10.9387 
409 2 8.96608 56.3081 8.96608 
410 2 10.9387 58.2807 10.9387 
411 2 12.9113 56.3081 8.96608 
412 2 14.8838 58.2807 10.9387 
413 2 16.8564 56.3081 8.96608 
414 2 18.829 58.2807 10.9387 
415 2 20.8016 56.3081 8.96608 
416 2 22.7742 58.2807 10.9387 
417 2 24.7468 56.3081 8.96608 
418 2 26.7193 58.2807 10.9387 
419 2 28.6919 56.3081 8.96608 
420 2 30.6645 58.2807 10.9387 
421 2 32.6371 56.3081 8.96608 
422 2 34.6097 58.2807 10.9387 
423 2 36.5823 56.3081 8.96608 
424 2 38.5548 58.2807 10.9387 
425 2 40.5274 56.3081 8.96608 
426 2 42.5 58.2807 10.9387 
427 2 44.4726 56.3081 8.96608 
428 2 46.4452 58.2807 10.9387 
429 2 48.4177 56.3081 8.96608 
430 2 50.3903 58.2807 10.9387 
431 2 52.3629 56.3081 8.96608 
432 2 54.3355 58.2807 10.9387 
433 2 56.3081 56.3081 8.96608 
434 2 58.2807 58.2807 10.9387 
435 2 60.2532 56.3081 8.96608 
436 2 62.2258 58.2807 10.9387 
437 2 64.1984 56.3081 8.96608 
438 2 66.171 58.2807 10.9387 
439 2 68.1436 56.3081 8.96608 
440 2 70.1162 58.2807 10.9387 
441 2 72.0887 56.3081 8.96608 
442 2 74.0613 58.2807 10.9387 
443 2 8.96608 60.2532 8.96608 
444 2 10.9387 62.2258 10.9387 
445 2 12.9113 60.2532 8.96608 
446 2 14.8838 62.2258 10.9387 
447 2 16.8564 60.2532 8.96608 
448 2 18.829 62.2258 10.9387 
449 2 20.8016 60.2532 8.96608 
450 2 22.7742 62.2258 10.9387 
451 2 24.7468 60.2532 8.96608 
452 2 26.7193 62.2258 10.9387 
453 2 28.6919 60.2532 8.96608 
454 2 30.6645 62.2258 10.9387 
455 2 32.6371 60.2532 8.96608 
456 2 34.6097 62.2258 10.9387 
457 2 36.5823 60.2532 8.96608 
458 2 38.5548 62.2258 10.9387 
459 2 40.5274 60.2532 8.96608 
460 2 42.5 62.2258 10.9387 
461 2 44.4726 60.2532 8.96608 
462 2 46.4452 62.2258 10.9387 
463 2 48.4177 60.2532 8.96608 
464 2 50.3903 62.2258 10.9387 
465 2 52.3629 60.2532 8.96608 
466 2 54.3355 62.2258 10.9387 
467 2 56.3081 60.2532 8.96608 
468 2 58.2807 62.2258 10.9387 
469 2 60.2532 60.2532 8.96608 
470 2 62.2258 62.2258 10.9387 
471 2 64.1984 60.2532 8.96608 
472 2 66.171 62.2258 10.9387 
473 2 68.1436 60.2532 8.96608 
474 2 70.1162 62.2258 10.9387 
475 2 72.0887 60.2532 8.96608 
476 2 74.0613 62.2258 10.9387 
477 2 8.96608 64.1984 8.96608 
478 2 10.9387 66.171 10.9387 
479 2 12.9113 64.1984 8.96608 
480 2 14.8838 66.171 10.9387 
481 2 16.8564 64.1984 8.96608 
482 2 18.829 66.171 10.9387 
483 2 20.8016 64.1984 8.96608 
484 2 22.7742 66.171 10.9387 
485 2 24.7468 64.1984 8.96608 
486 2 26.7193 66.171 10.9387 
487 2 28.6919 64.1984 8.96608 
488 2 30.6645 66.171 10.9387 
489 2 32.6371 64.1984 8.96608 
490 2 34.6097 66.171 10.9387 
491 2 36.5823 64.1984 8.96608 
492 2 38.5548 66.171 10.9387 
493 2 40.5274 64.1984 8.96608 
494 2 42.5 66.171 10.9387 
495 2 44.4726 64.1984 8.96608 
496 2 46.4452 66.171 10.9387 
497 2 48.4177 64.1984 8.96608 
498 2 50.3903 66.171 10.9387 
499 2 52.3629 64.1984 8.96608 
500 2 54.3355 66.171 10.9387 
501 2 56.3081 64.1984 8.96608 
502 2 58.2807 66.171 10.9387 
503 2 60.2532 64.1984 8.96608 
504 2 62.2258 66.171 10.9387 
505 2 64.1984 64.1984 8.96608 
506 2 66.171 66.171 10.9387 
507 2 68.1436 64.1984 8.96608 
508 2 70.1162 66.171 10.9387 
509 2 72.0887 64.1984 8.96608 
510 2 74.0613 66.171 10.9387 
511 2 8.96608 68.1436 8.96608 
512 2 10.9387 70.1162 10.9387 
513 2 12.9113 68.1436 8.96608 
514 2 14.8838 70.1162 10.9387 
515 2 16.8564 68.1436 8.96608 
516 2 18.829 70.1162 10.9387 
517 2 20.8016 68.1436 8.96608 
518 2 22.7742 70.1162 10.9387 
519 2 24.7468 68.1436 8.96608 
520 2 26.7193 70.1162 10.9387 
521 2 28.6919 68.1436 8.96608 
522 2 30.6645 70.1162 10.9387 
523 2 32.6371 68.1436 8.96608 
524 2 34.6097 70.1162 10.9387 
525 2 36.5823 68.1436 8.96608 
526 2 38.5548 70.1162 10.9387 
527 2 40.5274 68.1436 8.96608 
528 2 42.5 70.1162 10.9387 
529 2 44.4726 68.1436 8.96608 
530 2 46.4452 70.1162 10.9387 
531 2 48.4177 68.1436 8.96608 
532 2 50.3903 70.1162 10.9387 
533 2 52.3629 68.1436 8.96608 
534 2 54.3355 70.1162 10.9387 
535 2 56.3081 68.1436 8.96608 
536 2 58.2807 70.1162 10.9387 
537 2 60.2532 68.1436 8.96608 
538 2 62.2258 70.1162 10.9387 
539 2 64.1984 68.1436 8.96608 
540 2 66.171 70.1162 10.9387 
541 2 68.1436 68.1436 8.96608 
542 2 70.1162 70.1162 10.9387 
543 2 72.0887 68.1436 8.96608 
544 2 74.0613 70.1162 10.9387 
545 2 8.96608 72.0887 8.96608 
546 2 10.9387 74.0613 10.9387 
547 2 12.9113 72.0887 8.96608 
548 2 14.8838 74.0613 10.9387 
549 2 16.8564 72.0887 8.96608 
550 2 18.829 74.0613 10.9387 
551 2 20.8016 72.0887 8.96608 
552 2 22.7742 74.0613 10.9387 
553 2 24.7468 72.0887 8.96608 
554 2 26.7193 74.0613 10.9387 
555 2 28.6919 72.0887 8.96608 
556 2 30.6645 74.0613 10.9387 
557 2 32.6371 72.0887 8.96608 
558 2 34.6097 74.0613 10.9387 
559 2 36.5823 72.0887 8.96608 
560 2 38.5548 74.0613 10.9387 
561 2 40.5274 72.0887 8.96608 
562 2 42.5 74.0613 10.9387 
563 2 44.4726 72.0887 8.96608 
564 2 46.4452 74.0613 10.9387 
565 2 48.4177 72.0887 8.96608 
566 2 50.3903 74.0613 10.9387 
567 2 52.3629 72.0887 8.96608 
568 2 54.3355 74.0613 10.9387 
569 2 56.3081 72.0887 8.96608 
570 2 58.2807 74.0613 10.9387 
571 2 60.2532 72.0887 8.96608 
572 2 62.2258 74.0613 10.9387 
573 2 64.1984 72.0887 8.96608 
574 2 66.171 74.0613 10.9387 
575 2 68.1436 72.0887 8.96608 
576 2 70.1162 74.0613 10.9387 
577 2 72.0887 72.0887 8.96608 
578 2 74.0613 74.0613 10.9387 
579 2 8.96608 8.96608 12.9113 
580 2 10.9387 10.9387 14.8838 
581 2 12.9113 8.96608 12.9113 
582 2 14.8838 10.9387 14.8838 
583 2 16.8564 8.96608 12.9113 
584 2 18.829 10.9387 14.8838 
585 2 20.8016 8.96608 12.9113 
586 2 22.7742 10.9387 14.8838 
587 2 24.7468 8.96608 12.9113 
588 2 26.7193 10.9387 14.8838 
589 2 28.6919 8.96608 12.9113 
590 2 30.6645 10.9387 14.8838 
591 2 32.6371 8.96608 12.9113 
592 2 34.6097 10.9387 14.8838 
593 2 36.5823 8.96608 12.9113 
594 2 38.5548 10.9387 14.8838 
595 2 40.5274 8.96608 12.9113 
596 2 42.5 10.9387 14.8838 
597 2 44.4726 8.96608 12.9113 
598 2 46.4452 10.9387 14.8838 
599 2 48.4177 8.96608 12.9113 
600 2 50.3903 10.9387 14.8838 
601 2 52.3629 8.96608 12.9113 
602 2 54.3355 10.9387 14.8838 
603 2 56.3081 8.96608 12.9113 
604 2 58.2807 10.9387 14.8838 
605 2 60.2532 8.96608 12.9113 
606 2 62.2258 10.9387 14.8838 
607 2 64.1984 8.96608 12.9113 
608 2 66.171 10.9387 14.8838 
609 2 68.1436 8.96608 12.9113 
610 2 70.1162 10.9387 14.8838 
611 2 72.0887 8.96608 12.9113 
612 2 74.0613 10.9387 14.8838 
613 2 8.96608 12.9113 12.9113 
614 2 10.9387 14.8838 14.8838 
615 2 12.9113 12.9113 12.9113 
616 2 14.8838 14.8838 14.8838 
617 2 16.8564 12.9113 12.9113 
618 2 18.829 14.8838 14.8838 
619 2 20.8016 12.9113 12.9113 
620 2 22.7742 14.8838 14.8838 
621 2 24.7468 12.9113 12.9113 
622 2 26.7193 14.8838 14.8838 
623 2 28.6919 12.9113 12.9113 
624 2 30.6645 14.8838 14.8838 
625 2 32.6371 12.9113 12.9113 
626 2 34.6097 14.8838 14.8838 
627 2 36.5823 12.9113 12.9113 
628 2 38.5548 14.8838 14.8838 
629 2 40.5274 12.9113 12.9113 
630 2 42.5 14.8838 14.8838 
631 2 44.4726 12.9113 12.9113 
632 2 46.4452 14.8838 14.8838 
633 2 48.4177 12.9113 12.9113 
634 2 50.3903 14.8838 14.8838 
635 2 52.3629 12.9113 12.9113 
636 2 54.3355 14.8838 14.8838 
637 2 56.3081 12.9113 12.9113 
638 2 58.2807 14.8838 14.8838 
639 2 60.2532 12.9113 12.9113 
640 2 62.2258 14.8838 14.8838 
641 2 64.1984 12.9113 12.9113 
642 2 66.171 14.8838 14.8838 
643 2 68.1436 12.9113 12.9113 
644 2 70.1162 14.8838 14.8838 
645 2 72.0887 12.9113 12.9113 
646 2 74.0613 14.8838 14.8838 
647 2 8.96608 16.8564 12.9113 
648 2 10.9387 18.829 14.8838 
649 2 12.9113 16.8564 12.9113 
650 2 14.8838 18.829 14.8838 
651 2 16.8564 16.8564 12.9113 
652 2 18.829 18.829 14.8838 
653 2 20.8016 16.8564 12.9113 
654 2 22.7742 18.829 14.8838 
655 2 24.7468 16.8564 12.9113 
656 2 26.7193 18.829 14.8838 
657 2 28.6919 16.8564 12.9113 
658 2 30.6645 18.829 14.8838 
659 2 32.6371 16.8564 12.9113 
660 2 34.6097 18.829 14.8838 
661 2 36.5823 16.8564 12.9113 
662 2 38.5548 18.829 14.8838 
663 2 40.5274 16.8564 12.9113 
664 2 42.5 18.829 14.8838 
665 2 44.4726 16.8564 12.9113 
666 2 46.4452 18.829 14.8838 
667 2 48.4177 16.8564 12.9113 
668 2 50.3903 18.829 14.8838 
669 2 52.3629 16.8564 12.9113 
670 2 54.3355 18.829 14.8838 
671 2 56.3081 16.8564 12.9113 
672 2 58.2807 18.829 14.8838 
673 2 60.2532 16.8564 12.9113 
674 2 62.2258 18.829 14.8838 
675 2 64.1984 16.8564 12.9113 
676 2 66.171 18.829 14.8838 
677 2 68.1436 16.8564 12.9113 
678 2 70.1162 18.829 14.8838 
679 2 72.0887 16.8564 12.9113 
680 2 74.0613 18.829 14.8838 
681 2 8.96608 20.8016 12.9113 
682 2 10.9387 22.7742 14.8838 
683 2 12.9113 20.8016 12.9113 
684 2 14.8838 22.7742 14.8838 
685 2 16.8564 20.8016 12.9113 
686 2 18.829 22.7742 14.8838 
687 2 20.8016 20.8016 12.9113 
688 2 22.7742 22.7742 14.8838 
689 2 24.7468 20.8016 12.9113 
690 2 26.7193 22.7742 14.8838 
691 2 28.6919 20.8016 12.9113 
692 2 30.6645 22.7742 14.8838 
693 2 32.6371 20.8016 12.9113 
694 2 34.6097 22.7742 14.8838 
695 2 36.5823 20.8016 12.9113 
696 2 38.5548 22.7742 14.8838 
697 2 40.5274 20.8016 12.9113 
698 2 42.5 22.7742 14.8838 
699 2 44.4726 20.8016 12.9113 
700 2 46.4452 22.7742 14.8838 
701 2 48.4177 20.8016 12.9113 
702 2 50.3903 22.7742 14.8838 
703 2 52.3629 20.8016 12.9113 
704 2 54.3355 22.7742 14.8838 
705 2 56.3081 20.8016 12.9113 
706 2 58.2807 22.7742 14.8838 
707 2 60.2532 20.8016 12.9113 
708 2 62.2258 22.7742 14.8838 
709 2 64.1984 20.8016 12.9113 
710 2 66.171 22.7742 14.8838 
711 2 68.1436 20.8016 12.9113 
712 2 70.1162 22.7742 14.8838 
713 2 72.0887 20.8016 12.9113 
714 2 74.0613 22.7742 14.8838 
715 2 8.96608 24.7468 12.9113 
716 2 10.9387 26.7193 14.8838 
717 2 12.9113 24.7468 12.9113 
718 2 14.8838 26.7193 14.8838 
719 2 16.8564 24.7468 12.9113 
720 2 18.829 26.7193 14.8838 
721 2 20.8016 24.7468 12.9113 
722 2 22.7742 26.7193 14.8838 
723 2 24.7468 24.7468 12.9113 
724 2 26.7193 26.7193 14.8838 
725 2 28.6919 24.7468 12.9113 
726 2 30.6645 26.7193 14.8838 
727 2 32.6371 24.7468 12.9113 
728 2 34.6097 26.7193 14.8838 
729 2 36.5823 24.7468 12.9113 
730 2 38.5548 26.7193 14.8838 
731 2 40.5274 24.7468 12.9113 
732 2 42.5 26.7193 14.8838 
733 2 44.4726 24.7468 12.9113 
734 2 46.4452 26.7193 14.8838 
735 2 48.4177 24.7468 12.9113 
736 2 50.3903 26.7193 14.8838 
737 2 52.3629 24.7468 12.9113 
738 2 54.3355 26.7193 14.8838 
739 2 56.3081 24.7468 12.9113 
740 2 58.2807 26.7193 14.8838 
741 2 60.2532 24.7468 12.9113 
742 2 62.2258 26.7193 14.8838 
743 2 64.1984 24.7468 12.9113 
744 2 66.171 26.7193 14.8838 
745 2 68.1436 24.7468 12.9113 
746 2 70.1162 26.7193 14.8838 
747 2 72.0887 24.7468 12.9113 
748 2 74.0613 26.7193 14.8838 
749 2 8.96608 28.6919 12.9113 
750 2 10.9387 30.6645 14.8838 
751 2 12.9113 28.6919 12.9113 
752 2 14.8838 30.6645 14.8838 
753 2 16.8564 28.6919 12.9113 
754 2 18.829 30.6645 14.8838 
755 2 20.8016 28.6919 12.9113 
756 2 22.7742 30.6645 14.8838 
757 2 24.7468 28.6919 12.9113 
758 2 26.7193 30.6645 14.8838 
759 2 28.6919 28.6919 12.9113 
760 2 30.6645 30.6645 14.8838 
761 2 32.6371 28.6919 12.9113 
762 2 34.6097 30.6645 14.8838 
763 2 36.5823 28.6919 12.9113 
764 2 38.5548 30.6645 14.8838 
765 2 40.5274 28.6919 12.9113 
766 2 42.5 30.6645 14.8838 
767 2 44.4726 28.6919 12.9113 
768 2 46.4452 30.6645 14.8838 
769 2 48.4177 28.6919 12.9113 
770 2 50.3903 30.6645 14.8838 
771 2 52.3629 28.6919 12.9113 
772 2 54.3355 30.6645 14.8838 
773 2 56.3081 28.6919 12.9113 
774 2 58.2807 30.6645 14.8838 
775 2 60.2532 28.6919 12.9113 
776 2 62.2258 30.6645 14.8838 
777 2 64.1984 28.6919 12.9113 
778 2 66.171 30.6645 14.8838 
779 2 68.1436 28.6919 12.9113 
780 2 70.1162 30.6645 14.8838 
781 2 72.0887 28.6919 12.9113 
782 2 74.0613 30.6645 14.8838 
783 2 8.96608 32.6371 12.9113 
784 2 10.9387 34.6097 14.8838 
785 2 12.9113 32.6371 12.9113 
786 2 14.8838 34.6097 14.8838 
787 2 16.8564 32.6371 12.9113 
788 2 18.829 34.6097 14.8838 
789 2 20.8016 32.6371 12.9113 
790 2 22.7742 34.6097 14.8838 
791 2 24.7468 32.6371 12.9113 
792 2 26.7193 34.6097 14.8838 
793 2 28.6919 32.6371 12.9113 
794 2 30.6645 34.6097 14.8838 
795 2 32.6371 32.6371 12.9113 
796 2 34.6097 34.6097 14.8838 
797 2 36.5823 32.6371 12.9113 
798 2 38.5548 34.6097 14.8838 
799 2 40.5274 32.6371 12.9113 
800 2 42.5 34.6097 14.8838 
801 2 44.4726 32.6371 12.9113 
802 2 46.4452 34.6097 14.8838 
803 2 48.4177 32.6371 12.9113 
804 2 50.3903 34.6097 14.8838 
805 2 52.3629 32.6371 12.9113 
806 2 54.3355 34.6097 14.8838 
807 2 56.3081 32.6371 12.9113 
808 2 58.2807 34.6097 14.8838 
809 2 60.2532 32.6371 12.9113 
810 2 62.2258 34.6097 14.8838 
811 2 64.1984 32.6371 12.9113 
812 2 66.171 34.6097 14.8838 
813 2 68.1436 32.6371 12.9113 
814 2 70.1162 34.6097 14.8838 
815 2 72.0887 32.6371 12.9113 
816 2 74.0613 34.6097 14.8838 
817 2 8.96608 36.5823 12.9113 
818 2 10.9387 38.5548 14.8838 
819 2 12.9113 36.5823 12.9113 
820 2 14.8838 38.5548 14.8838 
821 2 16.8564 36.5823 12.9113 
822 2 18.829 38.5548 14.8838 
823 2 20.8016 36.5823 12.9113 
824 2 22.7742 38.5548 14.8838 
825 2 24.7468 36.5823 12.9113 
826 2 26.7193 38.5548 14.8838 
827 2 28.6919 36.5823 12.9113 
828 2 30.6645 38.5548 14.8838 
829 2 32.6371 36.5823 12.9113 
830 2 34.6097 38.5548 14.8838 
831 2 36.5823 36.5823 12.9113 
832 2 38.5548 38.5548 14.8838 
833 2 40.5274 36.5823 12.9113 
834 2 42.5 38.5548 14.8838 
835 2 44.4726 36.5823 12.9113 
836 2 46.4452 38.5548 14.8838 
837 2 48.4177 36.5823 12.9113 
838 2 50.3903 38.5548 14.8838 
839 2 52.3629 36.5823 12.9113 
840 2 54.3355 38.5548 14.8838 
841 2 56.3081 36.5823 12.9113 
842 2 58.2807 38.5548 14.8838 
843 2 60.2532 36.5823 12.9113 
844 2 62.2258 38.5548 14.8838 
845 2 64.1984 36.5823 12.9113 
846 2 66.171 38.5548 14.8838 
847 2 68.1436 36.5823 12.9113 
848 2 70.1162 38.5548 14.8838 
849 2 72.0887 36.5823 12.9113 
850 2 74.0613 38.5548 14.8838 
851 2 8.96608 40.5274 12.9113 
852 2 10.9387 42.5 14.8838 
853 2 12.9113 40.5274 12.9113 
854 2 14.8838 42.5 14.8838 
855 2 16.8564 40.5274 12.9113 
856 2 18.829 42.5 14.8838 
857 2 20.8016 40.5274 12.9113 
858 2 22.7742 42.5 14.8838 
859 2 24.7468 40.5274 12.9113 
860 2 26.7193 42.5 14.8838 
861 2 28.6919 40.5274 12.9113 
862 2 30.6645 42.5 14.8838 
863 2 32.6371 40.5274 12.9113 
864 2 34.6097 42.5 14.8838 
865 2 36.5823 40.5274 12.9113 
866 2 38.5548 42.5 14.8838 
867 2 40.5274 40.5274 12.9113 
868 2 42.5 42.5 14.8838 
869 2 44.4726 40.5274 12.9113 
870 2 46.4452 42.5 14.8838 
871 2 48.4177 40.5274 12.9113 
872 2 50.3903 42.5 14.8838 
873 2 52.3629 40.5274 12.9113 
874 2 54.3355 42.5 14.8838 
875 2 56.3081 40.5274 12.9113 
876 2 58.2807 42.5 14.8838 
877 2 60.2532 40.5274 12.9113 
878 2 62.2258 42.5 14.8838 
879 2 64.1984 40.5274 12.9113 
880 2 66.171 42.5 14.8838 
881 2 68.1436 40.5274 12.9113 
882 2 70.1162 42.5 14.8838 
883 2 72.0887 40.5274 12.9113 
884 2 74.0613 42.5 14.8838 
885 2 8.96608 44.4726 12.9113 
886 2 10.9387 46.4452 14.8838 
887 2 12.9113 44.4726 12.9113 
888 2 14.8838 46.4452 14.8838 
889 2 16.8564 44.4726 12.9113 
890 2 18.829 46.4452 14.8838 
891 2 20.8016 44.4726 12.9113 
892 2 22.7742 46.4452 14.8838 
893 2 24.7468 44.4726 12.9113 
894 2 26.7193 46.4452 14.8838 
895 2 28.6919 44.4726 12.9113 
896 2 30.6645 46.4452 14.8838 
897 2 32.6371 44.4726 12.9113 
898 2 34.6097 46.4452 14.8838 
899 2 36.5823 44.4726 12.9113 
900 2 38.5548 46.4452 14.8838 
901 2 40.5274 44.4726 12.9113 
902 2 42.5 46.4452 14.8838 
903 2 44.4726 44.4726 12.9113 
904 2 46.4452 46.4452 14.8838 
905 2 48.4177 44.4726 12.9113 
906 2 50.3903 46.4452 14.8838 
907 2 52.3629 44.4726 12.9113 
908 2 54.3355 46.4452 14.8838 
909 2 56.3081 44.4726 12.9113 
910 2 58.2807 46.4452 14.8838 
911 2 60.2532 44.4726 12.9113 
912 2 62.2258 46.4452 14.8838 
913 2 64.1984 44.4726 12.9113 
914 2 66.171 46.4452 14.8838 
915 2 68.1436 44.4726 12.9113 
916 2 70.1162 46.4452 14.8838 
917 2 72.0887 44.4726 12.9113 
918 2 74.0613 46.4452 14.8838 
919 2 8.96608 48.4177 12.9113 
920 2 10.9387 50.3903 14.8838 
921 2 12.9113 48.4177 12.9113 
922 2 14.8838 50.3903 14.8838 
923 2 16.8564 48.4177 12.9113 
924 2 18.829 50.3903 14.8838 
925 2 20.8016 48.4177 12.9113 
926 2 22.7742 50.3903 14.8838 
927 2 24.7468 48.4177 12.9113 
928 2 26.7193 50.3903 14.8838 
929 2 28.6919 48.4177 12.9113 
930 2 30.6645 50.3903 14.8838 
931 2 32.6371 48.4177 12.9113 
932 2 34.6097 50.3903 14.8838 
933 2 36.5823 48.4177 12.9113 
934 2 38.5548 50.3903 14.8838 
935 2 40.5274 48.4177 12.9113 
936 2 42.5 50.3903 14.8838 
937 2 44.4726 48.4177 12.9113 
938 2 46.4452 50.3903 14.8838 
939 2 48.4177 48.4177 12.9113 
940 2 50.3903 50.3903 14.8838 
941 2 52.3629 48.4177 12.9113 
942 2 54.3355 50.3903 14.8838 
943 2 56.3081 48.4177 12.9113 
944 2 58.2807 50.3903 14.8838 
945 2 60.2532 48.4177 12.9113 
946 2 62.2258 50.3903 14.8838 
947 2 64.1984 48.4177 12.9113 
948 2 66.171 50.3903 14.8838 
949 2 68.1436 48.4177 12.9113 
950 2 70.1162 50.3903 14.8838 
951 2 72.0887 48.4177 12.9113 
952 2 74.0613 50.3903 14.8838 
953 2 8.96608 52.3629 12.9113 
954 2 10.9387 54.3355 14.8838 
955 2 12.9113 52.3629 12.9113 
956 2 14.8838 54.3355 14.8838 
957 2 16.8564 52.3629 12.9113 
958 2 18.829 54.3355 14.8838 
959 2 20.8016 52.3629 12.9113 
960 2 22.7742 54.3355 14.8838 
961 2 24.7468 52.3629 12.9113 
962 2 26.7193 54.3355 14.8838 
963 2 28.6919 52.3629 12.9113 
964 2 30.6645 54.3355 14.8838 
965 2 32.6371 52.3629 12.9113 
966 2 34.6097 54.3355 14.8838 
967 2 36.5823 52.3629 12.9113 
968 2 38.5548 54.3355 14.8838 
969 2 40.5274 52.3629 12.9113 
970 2 42.5 54.3355 14.8838 
971 2 44.4726 52.3629 12.9113 
972 2 46.4452 54.3355 14.8838 
973 2 48.4177 52.3629 12.9113 