ITEM: TIMESTEP
73
ITEM: NUMBER OF ATOMS
9826
ITEM: BOX BOUNDS pp pp pp
1.5005097825859607e+01 6.9994902174140037e+01
1.5005097825859607e+01 6.9994902174140037e+01
1.5005097825859607e+01 6.9994902174140037e+01
ITEM: ATOMS id type xu yu zu 
1 2 15.0051 15.0051 15.0051 
2 2 16.6224 16.6224 16.6224 
3 2 18.2398 15.0051 15.0051 
4 2 19.8571 16.6224 16.6224 
5 2 21.4745 15.0051 15.0051 
6 2 23.0918 16.6224 16.6224 
7 2 24.7092 15.0051 15.0051 
8 2 26.3265 16.6224 16.6224 
9 2 27.9439 15.0051 15.0051 
10 2 29.5612 16.6224 16.6224 
11 2 31.1786 15.0051 15.0051 
12 2 32.7959 16.6224 16.6224 
13 2 34.4133 15.0051 15.0051 
14 2 36.0306 16.6224 16.6224 
15 2 37.648 15.0051 15.0051 
16 2 39.2653 16.6224 16.6224 
17 2 40.8827 15.0051 15.0051 
18 2 42.5 16.6224 16.6224 
19 2 44.1173 15.0051 15.0051 
20 2 45.7347 16.6224 16.6224 
21 2 47.352 15.0051 15.0051 
22 2 48.9694 16.6224 16.6224 
23 2 50.5867 15.0051 15.0051 
24 2 52.2041 16.6224 16.6224 
25 2 53.8214 15.0051 15.0051 
26 2 55.4388 16.6224 16.6224 
27 2 57.0561 15.0051 15.0051 
28 2 58.6735 16.6224 16.6224 
29 2 60.2908 15.0051 15.0051 
30 2 61.9082 16.6224 16.6224 
31 2 63.5255 15.0051 15.0051 
32 2 65.1429 16.6224 16.6224 
33 2 66.7602 15.0051 15.0051 
34 2 68.3776 16.6224 16.6224 
35 2 15.0051 18.2398 15.0051 
36 2 16.6224 19.8571 16.6224 
37 2 18.2398 18.2398 15.0051 
38 2 19.8571 19.8571 16.6224 
39 2 21.4745 18.2398 15.0051 
40 2 23.0918 19.8571 16.6224 
41 2 24.7092 18.2398 15.0051 
42 2 26.3265 19.8571 16.6224 
43 2 27.9439 18.2398 15.0051 
44 2 29.5612 19.8571 16.6224 
45 2 31.1786 18.2398 15.0051 
46 2 32.7959 19.8571 16.6224 
47 2 34.4133 18.2398 15.0051 
48 2 36.0306 19.8571 16.6224 
49 2 37.648 18.2398 15.0051 
50 2 39.2653 19.8571 16.6224 
51 2 40.8827 18.2398 15.0051 
52 2 42.5 19.8571 16.6224 
53 2 44.1173 18.2398 15.0051 
54 2 45.7347 19.8571 16.6224 
55 2 47.352 18.2398 15.0051 
56 2 48.9694 19.8571 16.6224 
57 2 50.5867 18.2398 15.0051 
58 2 52.2041 19.8571 16.6224 
59 2 53.8214 18.2398 15.0051 
60 2 55.4388 19.8571 16.6224 
61 2 57.0561 18.2398 15.0051 
62 2 58.6735 19.8571 16.6224 
63 2 60.2908 18.2398 15.0051 
64 2 61.9082 19.8571 16.6224 
65 2 63.5255 18.2398 15.0051 
66 2 65.1429 19.8571 16.6224 
67 2 66.7602 18.2398 15.0051 
68 2 68.3776 19.8571 16.6224 
69 2 15.0051 21.4745 15.0051 
70 2 16.6224 23.0918 16.6224 
71 2 18.2398 21.4745 15.0051 
72 2 19.8571 23.0918 16.6224 
73 2 21.4745 21.4745 15.0051 
74 2 23.0918 23.0918 16.6224 
75 2 24.7092 21.4745 15.0051 
76 2 26.3265 23.0918 16.6224 
77 2 27.9439 21.4745 15.0051 
78 2 29.5612 23.0918 16.6224 
79 2 31.1786 21.4745 15.0051 
80 2 32.7959 23.0918 16.6224 
81 2 34.4133 21.4745 15.0051 
82 2 36.0306 23.0918 16.6224 
83 2 37.648 21.4745 15.0051 
84 2 39.2653 23.0918 16.6224 
85 2 40.8827 21.4745 15.0051 
86 2 42.5 23.0918 16.6224 
87 2 44.1173 21.4745 15.0051 
88 2 45.7347 23.0918 16.6224 
89 2 47.352 21.4745 15.0051 
90 2 48.9694 23.0918 16.6224 
91 2 50.5867 21.4745 15.0051 
92 2 52.2041 23.0918 16.6224 
93 2 53.8214 21.4745 15.0051 
94 2 55.4388 23.0918 16.6224 
95 2 57.0561 21.4745 15.0051 
96 2 58.6735 23.0918 16.6224 
97 2 60.2908 21.4745 15.0051 
98 2 61.9082 23.0918 16.6224 
99 2 63.5255 21.4745 15.0051 
100 2 65.1429 23.0918 16.6224 
101 2 66.7602 21.4745 15.0051 
102 2 68.3776 23.0918 16.6224 
103 2 15.0051 24.7092 15.0051 
104 2 16.6224 26.3265 16.6224 
105 2 18.2398 24.7092 15.0051 
106 2 19.8571 26.3265 16.6224 
107 2 21.4745 24.7092 15.0051 
108 2 23.0918 26.3265 16.6224 
109 2 24.7092 24.7092 15.0051 
110 2 26.3265 26.3265 16.6224 
111 2 27.9439 24.7092 15.0051 
112 2 29.5612 26.3265 16.6224 
113 2 31.1786 24.7092 15.0051 
114 2 32.7959 26.3265 16.6224 
115 2 34.4133 24.7092 15.0051 
116 2 36.0306 26.3265 16.6224 
117 2 37.648 24.7092 15.0051 
118 2 39.2653 26.3265 16.6224 
119 2 40.8827 24.7092 15.0051 
120 2 42.5 26.3265 16.6224 
121 2 44.1173 24.7092 15.0051 
122 2 45.7347 26.3265 16.6224 
123 2 47.352 24.7092 15.0051 
124 2 48.9694 26.3265 16.6224 
125 2 50.5867 24.7092 15.0051 
126 2 52.2041 26.3265 16.6224 
127 2 53.8214 24.7092 15.0051 
128 2 55.4388 26.3265 16.6224 
129 2 57.0561 24.7092 15.0051 
130 2 58.6735 26.3265 16.6224 
131 2 60.2908 24.7092 15.0051 
132 2 61.9082 26.3265 16.6224 
133 2 63.5255 24.7092 15.0051 
134 2 65.1429 26.3265 16.6224 
135 2 66.7602 24.7092 15.0051 
136 2 68.3776 26.3265 16.6224 
137 2 15.0051 27.9439 15.0051 
138 2 16.6224 29.5612 16.6224 
139 2 18.2398 27.9439 15.0051 
140 2 19.8571 29.5612 16.6224 
141 2 21.4745 27.9439 15.0051 
142 2 23.0918 29.5612 16.6224 
143 2 24.7092 27.9439 15.0051 
144 2 26.3265 29.5612 16.6224 
145 2 27.9439 27.9439 15.0051 
146 2 29.5612 29.5612 16.6224 
147 2 31.1786 27.9439 15.0051 
148 2 32.7959 29.5612 16.6224 
149 2 34.4133 27.9439 15.0051 
150 2 36.0306 29.5612 16.6224 
151 2 37.648 27.9439 15.0051 
152 2 39.2653 29.5612 16.6224 
153 2 40.8827 27.9439 15.0051 
154 2 42.5 29.5612 16.6224 
155 2 44.1173 27.9439 15.0051 
156 2 45.7347 29.5612 16.6224 
157 2 47.352 27.9439 15.0051 
158 2 48.9694 29.5612 16.6224 
159 2 50.5867 27.9439 15.0051 
160 2 52.2041 29.5612 16.6224 
161 2 53.8214 27.9439 15.0051 
162 2 55.4388 29.5612 16.6224 
163 2 57.0561 27.9439 15.0051 
164 2 58.6735 29.5612 16.6224 
165 2 60.2908 27.9439 15.0051 
166 2 61.9082 29.5612 16.6224 
167 2 63.5255 27.9439 15.0051 
168 2 65.1429 29.5612 16.6224 
169 2 66.7602 27.9439 15.0051 
170 2 68.3776 29.5612 16.6224 
171 2 15.0051 31.1786 15.0051 
172 2 16.6224 32.7959 16.6224 
173 2 18.2398 31.1786 15.0051 
174 2 19.8571 32.7959 16.6224 
175 2 21.4745 31.1786 15.0051 
176 2 23.0918 32.7959 16.6224 
177 2 24.7092 31.1786 15.0051 
178 2 26.3265 32.7959 16.6224 
179 2 27.9439 31.1786 15.0051 
180 2 29.5612 32.7959 16.6224 
181 2 31.1786 31.1786 15.0051 
182 2 32.7959 32.7959 16.6224 
183 2 34.4133 31.1786 15.0051 
184 2 36.0306 32.7959 16.6224 
185 2 37.648 31.1786 15.0051 
186 2 39.2653 32.7959 16.6224 
187 2 40.8827 31.1786 15.0051 
188 2 42.5 32.7959 16.6224 
189 2 44.1173 31.1786 15.0051 
190 2 45.7347 32.7959 16.6224 
191 2 47.352 31.1786 15.0051 
192 2 48.9694 32.7959 16.6224 
193 2 50.5867 31.1786 15.0051 
194 2 52.2041 32.7959 16.6224 
195 2 53.8214 31.1786 15.0051 
196 2 55.4388 32.7959 16.6224 
197 2 57.0561 31.1786 15.0051 
198 2 58.6735 32.7959 16.6224 
199 2 60.2908 31.1786 15.0051 
200 2 61.9082 32.7959 16.6224 
201 2 63.5255 31.1786 15.0051 
202 2 65.1429 32.7959 16.6224 
203 2 66.7602 31.1786 15.0051 
204 2 68.3776 32.7959 16.6224 
205 2 15.0051 34.4133 15.0051 
206 2 16.6224 36.0306 16.6224 
207 2 18.2398 34.4133 15.0051 
208 2 19.8571 36.0306 16.6224 
209 2 21.4745 34.4133 15.0051 
210 2 23.0918 36.0306 16.6224 
211 2 24.7092 34.4133 15.0051 
212 2 26.3265 36.0306 16.6224 
213 2 27.9439 34.4133 15.0051 
214 2 29.5612 36.0306 16.6224 
215 2 31.1786 34.4133 15.0051 
216 2 32.7959 36.0306 16.6224 
217 2 34.4133 34.4133 15.0051 
218 2 36.0306 36.0306 16.6224 
219 2 37.648 34.4133 15.0051 
220 2 39.2653 36.0306 16.6224 
221 2 40.8827 34.4133 15.0051 
222 2 42.5 36.0306 16.6224 
223 2 44.1173 34.4133 15.0051 
224 2 45.7347 36.0306 16.6224 
225 2 47.352 34.4133 15.0051 
226 2 48.9694 36.0306 16.6224 
227 2 50.5867 34.4133 15.0051 
228 2 52.2041 36.0306 16.6224 
229 2 53.8214 34.4133 15.0051 
230 2 55.4388 36.0306 16.6224 
231 2 57.0561 34.4133 15.0051 
232 2 58.6735 36.0306 16.6224 
233 2 60.2908 34.4133 15.0051 
234 2 61.9082 36.0306 16.6224 
235 2 63.5255 34.4133 15.0051 
236 2 65.1429 36.0306 16.6224 
237 2 66.7602 34.4133 15.0051 
238 2 68.3776 36.0306 16.6224 
239 2 15.0051 37.648 15.0051 
240 2 16.6224 39.2653 16.6224 
241 2 18.2398 37.648 15.0051 
242 2 19.8571 39.2653 16.6224 
243 2 21.4745 37.648 15.0051 
244 2 23.0918 39.2653 16.6224 
245 2 24.7092 37.648 15.0051 
246 2 26.3265 39.2653 16.6224 
247 2 27.9439 37.648 15.0051 
248 2 29.5612 39.2653 16.6224 
249 2 31.1786 37.648 15.0051 
250 2 32.7959 39.2653 16.6224 
251 2 34.4133 37.648 15.0051 
252 2 36.0306 39.2653 16.6224 
253 2 37.648 37.648 15.0051 
254 2 39.2653 39.2653 16.6224 
255 2 40.8827 37.648 15.0051 
256 2 42.5 39.2653 16.6224 
257 2 44.1173 37.648 15.0051 
258 2 45.7347 39.2653 16.6224 
259 2 47.352 37.648 15.0051 
260 2 48.9694 39.2653 16.6224 
261 2 50.5867 37.648 15.0051 
262 2 52.2041 39.2653 16.6224 
263 2 53.8214 37.648 15.0051 
264 2 55.4388 39.2653 16.6224 
265 2 57.0561 37.648 15.0051 
266 2 58.6735 39.2653 16.6224 
267 2 60.2908 37.648 15.0051 
268 2 61.9082 39.2653 16.6224 
269 2 63.5255 37.648 15.0051 
270 2 65.1429 39.2653 16.6224 
271 2 66.7602 37.648 15.0051 
272 2 68.3776 39.2653 16.6224 
273 2 15.0051 40.8827 15.0051 
274 2 16.6224 42.5 16.6224 
275 2 18.2398 40.8827 15.0051 
276 2 19.8571 42.5 16.6224 
277 2 21.4745 40.8827 15.0051 
278 2 23.0918 42.5 16.6224 
279 2 24.7092 40.8827 15.0051 
280 2 26.3265 42.5 16.6224 
281 2 27.9439 40.8827 15.0051 
282 2 29.5612 42.5 16.6224 
283 2 31.1786 40.8827 15.0051 
284 2 32.7959 42.5 16.6224 
285 2 34.4133 40.8827 15.0051 
286 2 36.0306 42.5 16.6224 
287 2 37.648 40.8827 15.0051 
288 2 39.2653 42.5 16.6224 
289 2 40.8827 40.8827 15.0051 
290 2 42.5 42.5 16.6224 
291 2 44.1173 40.8827 15.0051 
292 2 45.7347 42.5 16.6224 
293 2 47.352 40.8827 15.0051 
294 2 48.9694 42.5 16.6224 
295 2 50.5867 40.8827 15.0051 
296 2 52.2041 42.5 16.6224 
297 2 53.8214 40.8827 15.0051 
298 2 55.4388 42.5 16.6224 
299 2 57.0561 40.8827 15.0051 
300 2 58.6735 42.5 16.6224 
301 2 60.2908 40.8827 15.0051 
302 2 61.9082 42.5 16.6224 
303 2 63.5255 40.8827 15.0051 
304 2 65.1429 42.5 16.6224 
305 2 66.7602 40.8827 15.0051 
306 2 68.3776 42.5 16.6224 
307 2 15.0051 44.1173 15.0051 
308 2 16.6224 45.7347 16.6224 
309 2 18.2398 44.1173 15.0051 
310 2 19.8571 45.7347 16.6224 
311 2 21.4745 44.1173 15.0051 
312 2 23.0918 45.7347 16.6224 
313 2 24.7092 44.1173 15.0051 
314 2 26.3265 45.7347 16.6224 
315 2 27.9439 44.1173 15.0051 
316 2 29.5612 45.7347 16.6224 
317 2 31.1786 44.1173 15.0051 
318 2 32.7959 45.7347 16.6224 
319 2 34.4133 44.1173 15.0051 
320 2 36.0306 45.7347 16.6224 
321 2 37.648 44.1173 15.0051 
322 2 39.2653 45.7347 16.6224 
323 2 40.8827 44.1173 15.0051 
324 2 42.5 45.7347 16.6224 
325 2 44.1173 44.1173 15.0051 
326 2 45.7347 45.7347 16.6224 
327 2 47.352 44.1173 15.0051 
328 2 48.9694 45.7347 16.6224 
329 2 50.5867 44.1173 15.0051 
330 2 52.2041 45.7347 16.6224 
331 2 53.8214 44.1173 15.0051 
332 2 55.4388 45.7347 16.6224 
333 2 57.0561 44.1173 15.0051 
334 2 58.6735 45.7347 16.6224 
335 2 60.2908 44.1173 15.0051 
336 2 61.9082 45.7347 16.6224 
337 2 63.5255 44.1173 15.0051 
338 2 65.1429 45.7347 16.6224 
339 2 66.7602 44.1173 15.0051 
340 2 68.3776 45.7347 16.6224 
341 2 15.0051 47.352 15.0051 
342 2 16.6224 48.9694 16.6224 
343 2 18.2398 47.352 15.0051 
344 2 19.8571 48.9694 16.6224 
345 2 21.4745 47.352 15.0051 
346 2 23.0918 48.9694 16.6224 
347 2 24.7092 47.352 15.0051 
348 2 26.3265 48.9694 16.6224 
349 2 27.9439 47.352 15.0051 
350 2 29.5612 48.9694 16.6224 
351 2 31.1786 47.352 15.0051 
352 2 32.7959 48.9694 16.6224 
353 2 34.4133 47.352 15.0051 
354 2 36.0306 48.9694 16.6224 
355 2 37.648 47.352 15.0051 
356 2 39.2653 48.9694 16.6224 
357 2 40.8827 47.352 15.0051 
358 2 42.5 48.9694 16.6224 
359 2 44.1173 47.352 15.0051 
360 2 45.7347 48.9694 16.6224 
361 2 47.352 47.352 15.0051 
362 2 48.9694 48.9694 16.6224 
363 2 50.5867 47.352 15.0051 
364 2 52.2041 48.9694 16.6224 
365 2 53.8214 47.352 15.0051 
366 2 55.4388 48.9694 16.6224 
367 2 57.0561 47.352 15.0051 
368 2 58.6735 48.9694 16.6224 
369 2 60.2908 47.352 15.0051 
370 2 61.9082 48.9694 16.6224 
371 2 63.5255 47.352 15.0051 
372 2 65.1429 48.9694 16.6224 
373 2 66.7602 47.352 15.0051 
374 2 68.3776 48.9694 16.6224 
375 2 15.0051 50.5867 15.0051 
376 2 16.6224 52.2041 16.6224 
377 2 18.2398 50.5867 15.0051 
378 2 19.8571 52.2041 16.6224 
379 2 21.4745 50.5867 15.0051 
380 2 23.0918 52.2041 16.6224 
381 2 24.7092 50.5867 15.0051 
382 2 26.3265 52.2041 16.6224 
383 2 27.9439 50.5867 15.0051 
384 2 29.5612 52.2041 16.6224 
385 2 31.1786 50.5867 15.0051 
386 2 32.7959 52.2041 16.6224 
387 2 34.4133 50.5867 15.0051 
388 2 36.0306 52.2041 16.6224 
389 2 37.648 50.5867 15.0051 
390 2 39.2653 52.2041 16.6224 
391 2 40.8827 50.5867 15.0051 
392 2 42.5 52.2041 16.6224 
393 2 44.1173 50.5867 15.0051 
394 2 45.7347 52.2041 16.6224 
395 2 47.352 50.5867 15.0051 
396 2 48.9694 52.2041 16.6224 
397 2 50.5867 50.5867 15.0051 
398 2 52.2041 52.2041 16.6224 
399 2 53.8214 50.5867 15.0051 
400 2 55.4388 52.2041 16.6224 
401 2 57.0561 50.5867 15.0051 
402 2 58.6735 52.2041 16.6224 
403 2 60.2908 50.5867 15.0051 
404 2 61.9082 52.2041 16.6224 
405 2 63.5255 50.5867 15.0051 
406 2 65.1429 52.2041 16.6224 
407 2 66.7602 50.5867 15.0051 
408 2 68.3776 52.2041 16.6224 
409 2 15.0051 53.8214 15.0051 
410 2 16.6224 55.4388 16.6224 
411 2 18.2398 53.8214 15.0051 
412 2 19.8571 55.4388 16.6224 
413 2 21.4745 53.8214 15.0051 
414 2 23.0918 55.4388 16.6224 
415 2 24.7092 53.8214 15.0051 
416 2 26.3265 55.4388 16.6224 
417 2 27.9439 53.8214 15.0051 
418 2 29.5612 55.4388 16.6224 
419 2 31.1786 53.8214 15.0051 
420 2 32.7959 55.4388 16.6224 
421 2 34.4133 53.8214 15.0051 
422 2 36.0306 55.4388 16.6224 
423 2 37.648 53.8214 15.0051 
424 2 39.2653 55.4388 16.6224 
425 2 40.8827 53.8214 15.0051 
426 2 42.5 55.4388 16.6224 
427 2 44.1173 53.8214 15.0051 
428 2 45.7347 55.4388 16.6224 
429 2 47.352 53.8214 15.0051 
430 2 48.9694 55.4388 16.6224 
431 2 50.5867 53.8214 15.0051 
432 2 52.2041 55.4388 16.6224 
433 2 53.8214 53.8214 15.0051 
434 2 55.4388 55.4388 16.6224 
435 2 57.0561 53.8214 15.0051 
436 2 58.6735 55.4388 16.6224 
437 2 60.2908 53.8214 15.0051 
438 2 61.9082 55.4388 16.6224 
439 2 63.5255 53.8214 15.0051 
440 2 65.1429 55.4388 16.6224 
441 2 66.7602 53.8214 15.0051 
442 2 68.3776 55.4388 16.6224 
443 2 15.0051 57.0561 15.0051 
444 2 16.6224 58.6735 16.6224 
445 2 18.2398 57.0561 15.0051 
446 2 19.8571 58.6735 16.6224 
447 2 21.4745 57.0561 15.0051 
448 2 23.0918 58.6735 16.6224 
449 2 24.7092 57.0561 15.0051 
450 2 26.3265 58.6735 16.6224 
451 2 27.9439 57.0561 15.0051 
452 2 29.5612 58.6735 16.6224 
453 2 31.1786 57.0561 15.0051 
454 2 32.7959 58.6735 16.6224 
455 2 34.4133 57.0561 15.0051 
456 2 36.0306 58.6735 16.6224 
457 2 37.648 57.0561 15.0051 
458 2 39.2653 58.6735 16.6224 
459 2 40.8827 57.0561 15.0051 
460 2 42.5 58.6735 16.6224 
461 2 44.1173 57.0561 15.0051 
462 2 45.7347 58.6735 16.6224 
463 2 47.352 57.0561 15.0051 
464 2 48.9694 58.6735 16.6224 
465 2 50.5867 57.0561 15.0051 
466 2 52.2041 58.6735 16.6224 
467 2 53.8214 57.0561 15.0051 
468 2 55.4388 58.6735 16.6224 
469 2 57.0561 57.0561 15.0051 
470 2 58.6735 58.6735 16.6224 
471 2 60.2908 57.0561 15.0051 
472 2 61.9082 58.6735 16.6224 
473 2 63.5255 57.0561 15.0051 
474 2 65.1429 58.6735 16.6224 
475 2 66.7602 57.0561 15.0051 
476 2 68.3776 58.6735 16.6224 
477 2 15.0051 60.2908 15.0051 
478 2 16.6224 61.9082 16.6224 
479 2 18.2398 60.2908 15.0051 
480 2 19.8571 61.9082 16.6224 
481 2 21.4745 60.2908 15.0051 
482 2 23.0918 61.9082 16.6224 
483 2 24.7092 60.2908 15.0051 
484 2 26.3265 61.9082 16.6224 
485 2 27.9439 60.2908 15.0051 
486 2 29.5612 61.9082 16.6224 
487 2 31.1786 60.2908 15.0051 
488 2 32.7959 61.9082 16.6224 
489 2 34.4133 60.2908 15.0051 
490 2 36.0306 61.9082 16.6224 
491 2 37.648 60.2908 15.0051 
492 2 39.2653 61.9082 16.6224 
493 2 40.8827 60.2908 15.0051 
494 2 42.5 61.9082 16.6224 
495 2 44.1173 60.2908 15.0051 
496 2 45.7347 61.9082 16.6224 
497 2 47.352 60.2908 15.0051 
498 2 48.9694 61.9082 16.6224 
499 2 50.5867 60.2908 15.0051 
500 2 52.2041 61.9082 16.6224 
501 2 53.8214 60.2908 15.0051 
502 2 55.4388 61.9082 16.6224 
503 2 57.0561 60.2908 15.0051 
504 2 58.6735 61.9082 16.6224 
505 2 60.2908 60.2908 15.0051 
506 2 61.9082 61.9082 16.6224 
507 2 63.5255 60.2908 15.0051 
508 2 65.1429 61.9082 16.6224 
509 2 66.7602 60.2908 15.0051 
510 2 68.3776 61.9082 16.6224 
511 2 15.0051 63.5255 15.0051 
512 2 16.6224 65.1429 16.6224 
513 2 18.2398 63.5255 15.0051 
514 2 19.8571 65.1429 16.6224 
515 2 21.4745 63.5255 15.0051 
516 2 23.0918 65.1429 16.6224 
517 2 24.7092 63.5255 15.0051 
518 2 26.3265 65.1429 16.6224 
519 2 27.9439 63.5255 15.0051 
520 2 29.5612 65.1429 16.6224 
521 2 31.1786 63.5255 15.0051 
522 2 32.7959 65.1429 16.6224 
523 2 34.4133 63.5255 15.0051 
524 2 36.0306 65.1429 16.6224 
525 2 37.648 63.5255 15.0051 
526 2 39.2653 65.1429 16.6224 
527 2 40.8827 63.5255 15.0051 
528 2 42.5 65.1429 16.6224 
529 2 44.1173 63.5255 15.0051 
530 2 45.7347 65.1429 16.6224 
531 2 47.352 63.5255 15.0051 
532 2 48.9694 65.1429 16.6224 
533 2 50.5867 63.5255 15.0051 
534 2 52.2041 65.1429 16.6224 
535 2 53.8214 63.5255 15.0051 
536 2 55.4388 65.1429 16.6224 
537 2 57.0561 63.5255 15.0051 
538 2 58.6735 65.1429 16.6224 
539 2 60.2908 63.5255 15.0051 
540 2 61.9082 65.1429 16.6224 
541 2 63.5255 63.5255 15.0051 
542 2 65.1429 65.1429 16.6224 
543 2 66.7602 63.5255 15.0051 
544 2 68.3776 65.1429 16.6224 
545 2 15.0051 66.7602 15.0051 
546 2 16.6224 68.3776 16.6224 
547 2 18.2398 66.7602 15.0051 
548 2 19.8571 68.3776 16.6224 
549 2 21.4745 66.7602 15.0051 
550 2 23.0918 68.3776 16.6224 
551 2 24.7092 66.7602 15.0051 
552 2 26.3265 68.3776 16.6224 
553 2 27.9439 66.7602 15.0051 
554 2 29.5612 68.3776 16.6224 
555 2 31.1786 66.7602 15.0051 
556 2 32.7959 68.3776 16.6224 
557 2 34.4133 66.7602 15.0051 
558 2 36.0306 68.3776 16.6224 
559 2 37.648 66.7602 15.0051 
560 2 39.2653 68.3776 16.6224 
561 2 40.8827 66.7602 15.0051 
562 2 42.5 68.3776 16.6224 
563 2 44.1173 66.7602 15.0051 
564 2 45.7347 68.3776 16.6224 
565 2 47.352 66.7602 15.0051 
566 2 48.9694 68.3776 16.6224 
567 2 50.5867 66.7602 15.0051 
568 2 52.2041 68.3776 16.6224 
569 2 53.8214 66.7602 15.0051 
570 2 55.4388 68.3776 16.6224 
571 2 57.0561 66.7602 15.0051 
572 2 58.6735 68.3776 16.6224 
573 2 60.2908 66.7602 15.0051 
574 2 61.9082 68.3776 16.6224 
575 2 63.5255 66.7602 15.0051 
576 2 65.1429 68.3776 16.6224 
577 2 66.7602 66.7602 15.0051 
578 2 68.3776 68.3776 16.6224 
579 2 15.0051 15.0051 18.2398 
580 2 16.6224 16.6224 19.8571 
581 2 18.2398 15.0051 18.2398 
582 2 19.8571 16.6224 19.8571 
583 2 21.4745 15.0051 18.2398 
584 2 23.0918 16.6224 19.8571 
585 2 24.7092 15.0051 18.2398 
586 2 26.3265 16.6224 19.8571 
587 2 27.9439 15.0051 18.2398 
588 2 29.5612 16.6224 19.8571 
589 2 31.1786 15.0051 18.2398 
590 2 32.7959 16.6224 19.8571 
591 2 34.4133 15.0051 18.2398 
592 2 36.0306 16.6224 19.8571 
593 2 37.648 15.0051 18.2398 
594 2 39.2653 16.6224 19.8571 
595 2 40.8827 15.0051 18.2398 
596 2 42.5 16.6224 19.8571 
597 2 44.1173 15.0051 18.2398 
598 2 45.7347 16.6224 19.8571 
599 2 47.352 15.0051 18.2398 
600 2 48.9694 16.6224 19.8571 
601 2 50.5867 15.0051 18.2398 
602 2 52.2041 16.6224 19.8571 
603 2 53.8214 15.0051 18.2398 
604 2 55.4388 16.6224 19.8571 
605 2 57.0561 15.0051 18.2398 
606 2 58.6735 16.6224 19.8571 
607 2 60.2908 15.0051 18.2398 
608 2 61.9082 16.6224 19.8571 
609 2 63.5255 15.0051 18.2398 
610 2 65.1429 16.6224 19.8571 
611 2 66.7602 15.0051 18.2398 
612 2 68.3776 16.6224 19.8571 
613 2 15.0051 18.2398 18.2398 
614 2 16.6224 19.8571 19.8571 
615 2 18.2398 18.2398 18.2398 
616 2 19.8571 19.8571 19.8571 
617 2 21.4745 18.2398 18.2398 
618 2 23.0918 19.8571 19.8571 
619 2 24.7092 18.2398 18.2398 
620 2 26.3265 19.8571 19.8571 
621 2 27.9439 18.2398 18.2398 
622 2 29.5612 19.8571 19.8571 
623 2 31.1786 18.2398 18.2398 
624 2 32.7959 19.8571 19.8571 
625 2 34.4133 18.2398 18.2398 
626 2 36.0306 19.8571 19.8571 
627 2 37.648 18.2398 18.2398 
628 2 39.2653 19.8571 19.8571 
629 2 40.8827 18.2398 18.2398 
630 2 42.5 19.8571 19.8571 
631 2 44.1173 18.2398 18.2398 
632 2 45.7347 19.8571 19.8571 
633 2 47.352 18.2398 18.2398 
634 2 48.9694 19.8571 19.8571 
635 2 50.5867 18.2398 18.2398 
636 2 52.2041 19.8571 19.8571 
637 2 53.8214 18.2398 18.2398 
638 2 55.4388 19.8571 19.8571 
639 2 57.0561 18.2398 18.2398 
640 2 58.6735 19.8571 19.8571 
641 2 60.2908 18.2398 18.2398 
642 2 61.9082 19.8571 19.8571 
643 2 63.5255 18.2398 18.2398 
644 2 65.1429 19.8571 19.8571 
645 2 66.7602 18.2398 18.2398 
646 2 68.3776 19.8571 19.8571 
647 2 15.0051 21.4745 18.2398 
648 2 16.6224 23.0918 19.8571 
649 2 18.2398 21.4745 18.2398 
650 2 19.8571 23.0918 19.8571 
651 2 21.4745 21.4745 18.2398 
652 2 23.0918 23.0918 19.8571 
653 2 24.7092 21.4745 18.2398 
654 2 26.3265 23.0918 19.8571 
655 2 27.9439 21.4745 18.2398 
656 2 29.5612 23.0918 19.8571 
657 2 31.1786 21.4745 18.2398 
658 2 32.7959 23.0918 19.8571 
659 2 34.4133 21.4745 18.2398 
660 2 36.0306 23.0918 19.8571 
661 2 37.648 21.4745 18.2398 
662 2 39.2653 23.0918 19.8571 
663 2 40.8827 21.4745 18.2398 
664 2 42.5 23.0918 19.8571 
665 2 44.1173 21.4745 18.2398 
666 2 45.7347 23.0918 19.8571 
667 2 47.352 21.4745 18.2398 
668 2 48.9694 23.0918 19.8571 
669 2 50.5867 21.4745 18.2398 
670 2 52.2041 23.0918 19.8571 
671 2 53.8214 21.4745 18.2398 
672 2 55.4388 23.0918 19.8571 
673 2 57.0561 21.4745 18.2398 
674 2 58.6735 23.0918 19.8571 
675 2 60.2908 21.4745 18.2398 
676 2 61.9082 23.0918 19.8571 
677 2 63.5255 21.4745 18.2398 
678 2 65.1429 23.0918 19.8571 
679 2 66.7602 21.4745 18.2398 
680 2 68.3776 23.0918 19.8571 
681 2 15.0051 24.7092 18.2398 
682 2 16.6224 26.3265 19.8571 
683 2 18.2398 24.7092 18.2398 
684 2 19.8571 26.3265 19.8571 
685 2 21.4745 24.7092 18.2398 
686 2 23.0918 26.3265 19.8571 
687 2 24.7092 24.7092 18.2398 
688 2 26.3265 26.3265 19.8571 
689 2 27.9439 24.7092 18.2398 
690 2 29.5612 26.3265 19.8571 
691 2 31.1786 24.7092 18.2398 
692 2 32.7959 26.3265 19.8571 
693 2 34.4133 24.7092 18.2398 
694 2 36.0306 26.3265 19.8571 
695 2 37.648 24.7092 18.2398 
696 2 39.2653 26.3265 19.8571 
697 2 40.8827 24.7092 18.2398 
698 2 42.5 26.3265 19.8571 
699 2 44.1173 24.7092 18.2398 
700 2 45.7347 26.3265 19.8571 
701 2 47.352 24.7092 18.2398 
702 2 48.9694 26.3265 19.8571 
703 2 50.5867 24.7092 18.2398 
704 2 52.2041 26.3265 19.8571 
705 2 53.8214 24.7092 18.2398 
706 2 55.4388 26.3265 19.8571 
707 2 57.0561 24.7092 18.2398 
708 2 58.6735 26.3265 19.8571 
709 2 60.2908 24.7092 18.2398 
710 2 61.9082 26.3265 19.8571 
711 2 63.5255 24.7092 18.2398 
712 2 65.1429 26.3265 19.8571 
713 2 66.7602 24.7092 18.2398 
714 2 68.3776 26.3265 19.8571 
715 2 15.0051 27.9439 18.2398 
716 2 16.6224 29.5612 19.8571 
717 2 18.2398 27.9439 18.2398 
718 2 19.8571 29.5612 19.8571 
719 2 21.4745 27.9439 18.2398 
720 2 23.0918 29.5612 19.8571 
721 2 24.7092 27.9439 18.2398 
722 2 26.3265 29.5612 19.8571 
723 2 27.9439 27.9439 18.2398 
724 2 29.5612 29.5612 19.8571 
725 2 31.1786 27.9439 18.2398 
726 2 32.7959 29.5612 19.8571 
727 2 34.4133 27.9439 18.2398 
728 2 36.0306 29.5612 19.8571 
729 2 37.648 27.9439 18.2398 
730 2 39.2653 29.5612 19.8571 
731 2 40.8827 27.9439 18.2398 
732 2 42.5 29.5612 19.8571 
733 2 44.1173 27.9439 18.2398 
734 2 45.7347 29.5612 19.8571 
735 2 47.352 27.9439 18.2398 
736 2 48.9694 29.5612 19.8571 
737 2 50.5867 27.9439 18.2398 
738 2 52.2041 29.5612 19.8571 
739 2 53.8214 27.9439 18.2398 
740 2 55.4388 29.5612 19.8571 
741 2 57.0561 27.9439 18.2398 
742 2 58.6735 29.5612 19.8571 
743 2 60.2908 27.9439 18.2398 
744 2 61.9082 29.5612 19.8571 
745 2 63.5255 27.9439 18.2398 
746 2 65.1429 29.5612 19.8571 
747 2 66.7602 27.9439 18.2398 
748 2 68.3776 29.5612 19.8571 
749 2 15.0051 31.1786 18.2398 
750 2 16.6224 32.7959 19.8571 
751 2 18.2398 31.1786 18.2398 
752 2 19.8571 32.7959 19.8571 
753 2 21.4745 31.1786 18.2398 
754 2 23.0918 32.7959 19.8571 
755 2 24.7092 31.1786 18.2398 
756 2 26.3265 32.7959 19.8571 
757 2 27.9439 31.1786 18.2398 
758 2 29.5612 32.7959 19.8571 
759 2 31.1786 31.1786 18.2398 
760 2 32.7959 32.7959 19.8571 
761 2 34.4133 31.1786 18.2398 
762 2 36.0306 32.7959 19.8571 
763 2 37.648 31.1786 18.2398 
764 2 39.2653 32.7959 19.8571 
765 2 40.8827 31.1786 18.2398 
766 2 42.5 32.7959 19.8571 
767 2 44.1173 31.1786 18.2398 
768 2 45.7347 32.7959 19.8571 
769 2 47.352 31.1786 18.2398 
770 2 48.9694 32.7959 19.8571 
771 2 50.5867 31.1786 18.2398 
772 2 52.2041 32.7959 19.8571 
773 2 53.8214 31.1786 18.2398 
774 2 55.4388 32.7959 19.8571 
775 2 57.0561 31.1786 18.2398 
776 2 58.6735 32.7959 19.8571 
777 2 60.2908 31.1786 18.2398 
778 2 61.9082 32.7959 19.8571 
779 2 63.5255 31.1786 18.2398 
780 2 65.1429 32.7959 19.8571 
781 2 66.7602 31.1786 18.2398 
782 2 68.3776 32.7959 19.8571 
783 2 15.0051 34.4133 18.2398 
784 2 16.6224 36.0306 19.8571 
785 2 18.2398 34.4133 18.2398 
786 2 19.8571 36.0306 19.8571 
787 2 21.4745 34.4133 18.2398 
788 2 23.0918 36.0306 19.8571 
789 2 24.7092 34.4133 18.2398 
790 2 26.3265 36.0306 19.8571 
791 2 27.9439 34.4133 18.2398 
792 2 29.5612 36.0306 19.8571 
793 2 31.1786 34.4133 18.2398 
794 2 32.7959 36.0306 19.8571 
795 2 34.4133 34.4133 18.2398 
796 2 36.0306 36.0306 19.8571 
797 2 37.648 34.4133 18.2398 
798 2 39.2653 36.0306 19.8571 
799 2 40.8827 34.4133 18.2398 
800 2 42.5 36.0306 19.8571 
801 2 44.1173 34.4133 18.2398 
802 2 45.7347 36.0306 19.8571 
803 2 47.352 34.4133 18.2398 
804 2 48.9694 36.0306 19.8571 
805 2 50.5867 34.4133 18.2398 
806 2 52.2041 36.0306 19.8571 
807 2 53.8214 34.4133 18.2398 
808 2 55.4388 36.0306 19.8571 
809 2 57.0561 34.4133 18.2398 
810 2 58.6735 36.0306 19.8571 
811 2 60.2908 34.4133 18.2398 
812 2 61.9082 36.0306 19.8571 
813 2 63.5255 34.4133 18.2398 
814 2 65.1429 36.0306 19.8571 
815 2 66.7602 34.4133 18.2398 
816 2 68.3776 36.0306 19.8571 
817 2 15.0051 37.648 18.2398 
818 2 16.6224 39.2653 19.8571 
819 2 18.2398 37.648 18.2398 
820 2 19.8571 39.2653 19.8571 
821 2 21.4745 37.648 18.2398 
822 2 23.0918 39.2653 19.8571 
823 2 24.7092 37.648 18.2398 
824 2 26.3265 39.2653 19.8571 
825 2 27.9439 37.648 18.2398 
826 2 29.5612 39.2653 19.8571 
827 2 31.1786 37.648 18.2398 
828 2 32.7959 39.2653 19.8571 
829 2 34.4133 37.648 18.2398 
830 2 36.0306 39.2653 19.8571 
831 2 37.648 37.648 18.2398 
832 2 39.2653 39.2653 19.8571 
833 2 40.8827 37.648 18.2398 
834 2 42.5 39.2653 19.8571 
835 2 44.1173 37.648 18.2398 
836 2 45.7347 39.2653 19.8571 
837 2 47.352 37.648 18.2398 
838 2 48.9694 39.2653 19.8571 
839 2 50.5867 37.648 18.2398 
840 2 52.2041 39.2653 19.8571 
841 2 53.8214 37.648 18.2398 
842 2 55.4388 39.2653 19.8571 
843 2 57.0561 37.648 18.2398 
844 2 58.6735 39.2653 19.8571 
845 2 60.2908 37.648 18.2398 
846 2 61.9082 39.2653 19.8571 
847 2 63.5255 37.648 18.2398 
848 2 65.1429 39.2653 19.8571 
849 2 66.7602 37.648 18.2398 
850 2 68.3776 39.2653 19.8571 
851 2 15.0051 40.8827 18.2398 
852 2 16.6224 42.5 19.8571 
853 2 18.2398 40.8827 18.2398 
854 2 19.8571 42.5 19.8571 
855 2 21.4745 40.8827 18.2398 
856 2 23.0918 42.5 19.8571 
857 2 24.7092 40.8827 18.2398 
858 2 26.3265 42.5 19.8571 
859 2 27.9439 40.8827 18.2398 
860 2 29.5612 42.5 19.8571 
861 2 31.1786 40.8827 18.2398 
862 2 32.7959 42.5 19.8571 
863 2 34.4133 40.8827 18.2398 
864 2 36.0306 42.5 19.8571 
865 2 37.648 40.8827 18.2398 
866 2 39.2653 42.5 19.8571 
867 2 40.8827 40.8827 18.2398 
868 2 42.5 42.5 19.8571 
869 2 44.1173 40.8827 18.2398 
870 2 45.7347 42.5 19.8571 
871 2 47.352 40.8827 18.2398 
872 2 48.9694 42.5 19.8571 
873 2 50.5867 40.8827 18.2398 
874 2 52.2041 42.5 19.8571 
875 2 53.8214 40.8827 18.2398 
876 2 55.4388 42.5 19.8571 
877 2 57.0561 40.8827 18.2398 
878 2 58.6735 42.5 19.8571 
879 2 60.2908 40.8827 18.2398 
880 2 61.9082 42.5 19.8571 
881 2 63.5255 40.8827 18.2398 
882 2 65.1429 42.5 19.8571 
883 2 66.7602 40.8827 18.2398 
884 2 68.3776 42.5 19.8571 
885 2 15.0051 44.1173 18.2398 
886 2 16.6224 45.7347 19.8571 
887 2 18.2398 44.1173 18.2398 
888 2 19.8571 45.7347 19.8571 
889 2 21.4745 44.1173 18.2398 
890 2 23.0918 45.7347 19.8571 
891 2 24.7092 44.1173 18.2398 
892 2 26.3265 45.7347 19.8571 
893 2 27.9439 44.1173 18.2398 
894 2 29.5612 45.7347 19.8571 
895 2 31.1786 44.1173 18.2398 
896 2 32.7959 45.7347 19.8571 
897 2 34.4133 44.1173 18.2398 
898 2 36.0306 45.7347 19.8571 
899 2 37.648 44.1173 18.2398 
900 2 39.2653 45.7347 19.8571 
901 2 40.8827 44.1173 18.2398 
902 2 42.5 45.7347 19.8571 
903 2 44.1173 44.1173 18.2398 
904 2 45.7347 45.7347 19.8571 
905 2 47.352 44.1173 18.2398 
906 2 48.9694 45.7347 19.8571 
907 2 50.5867 44.1173 18.2398 
908 2 52.2041 45.7347 19.8571 
909 2 53.8214 44.1173 18.2398 
910 2 55.4388 45.7347 19.8571 
911 2 57.0561 44.1173 18.2398 
912 2 58.6735 45.7347 19.8571 
913 2 60.2908 44.1173 18.2398 
914 2 61.9082 45.7347 19.8571 
915 2 63.5255 44.1173 18.2398 
916 2 65.1429 45.7347 19.8571 
917 2 66.7602 44.1173 18.2398 
918 2 68.3776 45.7347 19.8571 
919 2 15.0051 47.352 18.2398 
920 2 16.6224 48.9694 19.8571 
921 2 18.2398 47.352 18.2398 
922 2 19.8571 48.9694 19.8571 
923 2 21.4745 47.352 18.2398 
924 2 23.0918 48.9694 19.8571 
925 2 24.7092 47.352 18.2398 
926 2 26.3265 48.9694 19.8571 
927 2 27.9439 47.352 18.2398 
928 2 29.5612 48.9694 19.8571 
929 2 31.1786 47.352 18.2398 
930 2 32.7959 48.9694 19.8571 
931 2 34.4133 47.352 18.2398 
932 2 36.0306 48.9694 19.8571 
933 2 37.648 47.352 18.2398 
934 2 39.2653 48.9694 19.8571 
935 2 40.8827 47.352 18.2398 
936 2 42.5 48.9694 19.8571 
937 2 44.1173 47.352 18.2398 
938 2 45.7347 48.9694 19.8571 
939 2 47.352 47.352 18.2398 
940 2 48.9694 48.9694 19.8571 
941 2 50.5867 47.352 18.2398 
942 2 52.2041 48.9694 19.8571 
943 2 53.8214 47.352 18.2398 
944 2 55.4388 48.9694 19.8571 
945 2 57.0561 47.352 18.2398 
946 2 58.6735 48.9694 19.8571 
947 2 60.2908 47.352 18.2398 
948 2 61.9082 48.9694 19.8571 
949 2 63.5255 47.352 18.2398 
950 2 65.1429 48.9694 19.8571 
951 2 66.7602 47.352 18.2398 
952 2 68.3776 48.9694 19.8571 
953 2 15.0051 50.5867 18.2398 
954 2 16.6224 52.2041 19.8571 
955 2 18.2398 50.5867 18.2398 
956 2 19.8571 52.2041 19.8571 
957 2 21.4745 50.5867 18.2398 
958 2 23.0918 52.2041 19.8571 
959 2 24.7092 50.5867 18.2398 
960 2 26.3265 52.2041 19.8571 
961 2 27.9439 50.5867 18.2398 
962 2 29.5612 52.2041 19.8571 
963 2 31.1786 50.5867 18.2398 
964 2 32.7959 52.2041 19.8571 
965 2 34.4133 50.5867 18.2398 
966 2 36.0306 52.2041 19.8571 
967 2 37.648 50.5867 18.2398 
968 2 39.2653 52.2041 19.8571 
969 2 40.8827 50.5867 18.2398 
970 2 42.5 52.2041 19.8571 
971 2 44.1173 50.5867 18.2398 
972 2 45.7347 52.2041 19.8571 
973 2 47.352 50.5867 18.2398 