ITEM: TIMESTEP
59
ITEM: NUMBER OF ATOMS
9826
ITEM: BOX BOUNDS pp pp pp
1.2106518173129343e+01 7.2893481826870357e+01
1.2106518173129343e+01 7.2893481826870357e+01
1.2106518173129343e+01 7.2893481826870357e+01
ITEM: ATOMS id type xu yu zu 
1 2 12.1065 12.1065 12.1065 
2 2 13.8944 13.8944 13.8944 
3 2 15.6822 12.1065 12.1065 
4 2 17.4701 13.8944 13.8944 
5 2 19.2579 12.1065 12.1065 
6 2 21.0458 13.8944 13.8944 
7 2 22.8336 12.1065 12.1065 
8 2 24.6215 13.8944 13.8944 
9 2 26.4093 12.1065 12.1065 
10 2 28.1972 13.8944 13.8944 
11 2 29.985 12.1065 12.1065 
12 2 31.7729 13.8944 13.8944 
13 2 33.5607 12.1065 12.1065 
14 2 35.3486 13.8944 13.8944 
15 2 37.1364 12.1065 12.1065 
16 2 38.9243 13.8944 13.8944 
17 2 40.7121 12.1065 12.1065 
18 2 42.5 13.8944 13.8944 
19 2 44.2879 12.1065 12.1065 
20 2 46.0757 13.8944 13.8944 
21 2 47.8636 12.1065 12.1065 
22 2 49.6514 13.8944 13.8944 
23 2 51.4393 12.1065 12.1065 
24 2 53.2271 13.8944 13.8944 
25 2 55.015 12.1065 12.1065 
26 2 56.8028 13.8944 13.8944 
27 2 58.5907 12.1065 12.1065 
28 2 60.3785 13.8944 13.8944 
29 2 62.1664 12.1065 12.1065 
30 2 63.9542 13.8944 13.8944 
31 2 65.7421 12.1065 12.1065 
32 2 67.5299 13.8944 13.8944 
33 2 69.3178 12.1065 12.1065 
34 2 71.1056 13.8944 13.8944 
35 2 12.1065 15.6822 12.1065 
36 2 13.8944 17.4701 13.8944 
37 2 15.6822 15.6822 12.1065 
38 2 17.4701 17.4701 13.8944 
39 2 19.2579 15.6822 12.1065 
40 2 21.0458 17.4701 13.8944 
41 2 22.8336 15.6822 12.1065 
42 2 24.6215 17.4701 13.8944 
43 2 26.4093 15.6822 12.1065 
44 2 28.1972 17.4701 13.8944 
45 2 29.985 15.6822 12.1065 
46 2 31.7729 17.4701 13.8944 
47 2 33.5607 15.6822 12.1065 
48 2 35.3486 17.4701 13.8944 
49 2 37.1364 15.6822 12.1065 
50 2 38.9243 17.4701 13.8944 
51 2 40.7121 15.6822 12.1065 
52 2 42.5 17.4701 13.8944 
53 2 44.2879 15.6822 12.1065 
54 2 46.0757 17.4701 13.8944 
55 2 47.8636 15.6822 12.1065 
56 2 49.6514 17.4701 13.8944 
57 2 51.4393 15.6822 12.1065 
58 2 53.2271 17.4701 13.8944 
59 2 55.015 15.6822 12.1065 
60 2 56.8028 17.4701 13.8944 
61 2 58.5907 15.6822 12.1065 
62 2 60.3785 17.4701 13.8944 
63 2 62.1664 15.6822 12.1065 
64 2 63.9542 17.4701 13.8944 
65 2 65.7421 15.6822 12.1065 
66 2 67.5299 17.4701 13.8944 
67 2 69.3178 15.6822 12.1065 
68 2 71.1056 17.4701 13.8944 
69 2 12.1065 19.2579 12.1065 
70 2 13.8944 21.0458 13.8944 
71 2 15.6822 19.2579 12.1065 
72 2 17.4701 21.0458 13.8944 
73 2 19.2579 19.2579 12.1065 
74 2 21.0458 21.0458 13.8944 
75 2 22.8336 19.2579 12.1065 
76 2 24.6215 21.0458 13.8944 
77 2 26.4093 19.2579 12.1065 
78 2 28.1972 21.0458 13.8944 
79 2 29.985 19.2579 12.1065 
80 2 31.7729 21.0458 13.8944 
81 2 33.5607 19.2579 12.1065 
82 2 35.3486 21.0458 13.8944 
83 2 37.1364 19.2579 12.1065 
84 2 38.9243 21.0458 13.8944 
85 2 40.7121 19.2579 12.1065 
86 2 42.5 21.0458 13.8944 
87 2 44.2879 19.2579 12.1065 
88 2 46.0757 21.0458 13.8944 
89 2 47.8636 19.2579 12.1065 
90 2 49.6514 21.0458 13.8944 
91 2 51.4393 19.2579 12.1065 
92 2 53.2271 21.0458 13.8944 
93 2 55.015 19.2579 12.1065 
94 2 56.8028 21.0458 13.8944 
95 2 58.5907 19.2579 12.1065 
96 2 60.3785 21.0458 13.8944 
97 2 62.1664 19.2579 12.1065 
98 2 63.9542 21.0458 13.8944 
99 2 65.7421 19.2579 12.1065 
100 2 67.5299 21.0458 13.8944 
101 2 69.3178 19.2579 12.1065 
102 2 71.1056 21.0458 13.8944 
103 2 12.1065 22.8336 12.1065 
104 2 13.8944 24.6215 13.8944 
105 2 15.6822 22.8336 12.1065 
106 2 17.4701 24.6215 13.8944 
107 2 19.2579 22.8336 12.1065 
108 2 21.0458 24.6215 13.8944 
109 2 22.8336 22.8336 12.1065 
110 2 24.6215 24.6215 13.8944 
111 2 26.4093 22.8336 12.1065 
112 2 28.1972 24.6215 13.8944 
113 2 29.985 22.8336 12.1065 
114 2 31.7729 24.6215 13.8944 
115 2 33.5607 22.8336 12.1065 
116 2 35.3486 24.6215 13.8944 
117 2 37.1364 22.8336 12.1065 
118 2 38.9243 24.6215 13.8944 
119 2 40.7121 22.8336 12.1065 
120 2 42.5 24.6215 13.8944 
121 2 44.2879 22.8336 12.1065 
122 2 46.0757 24.6215 13.8944 
123 2 47.8636 22.8336 12.1065 
124 2 49.6514 24.6215 13.8944 
125 2 51.4393 22.8336 12.1065 
126 2 53.2271 24.6215 13.8944 
127 2 55.015 22.8336 12.1065 
128 2 56.8028 24.6215 13.8944 
129 2 58.5907 22.8336 12.1065 
130 2 60.3785 24.6215 13.8944 
131 2 62.1664 22.8336 12.1065 
132 2 63.9542 24.6215 13.8944 
133 2 65.7421 22.8336 12.1065 
134 2 67.5299 24.6215 13.8944 
135 2 69.3178 22.8336 12.1065 
136 2 71.1056 24.6215 13.8944 
137 2 12.1065 26.4093 12.1065 
138 2 13.8944 28.1972 13.8944 
139 2 15.6822 26.4093 12.1065 
140 2 17.4701 28.1972 13.8944 
141 2 19.2579 26.4093 12.1065 
142 2 21.0458 28.1972 13.8944 
143 2 22.8336 26.4093 12.1065 
144 2 24.6215 28.1972 13.8944 
145 2 26.4093 26.4093 12.1065 
146 2 28.1972 28.1972 13.8944 
147 2 29.985 26.4093 12.1065 
148 2 31.7729 28.1972 13.8944 
149 2 33.5607 26.4093 12.1065 
150 2 35.3486 28.1972 13.8944 
151 2 37.1364 26.4093 12.1065 
152 2 38.9243 28.1972 13.8944 
153 2 40.7121 26.4093 12.1065 
154 2 42.5 28.1972 13.8944 
155 2 44.2879 26.4093 12.1065 
156 2 46.0757 28.1972 13.8944 
157 2 47.8636 26.4093 12.1065 
158 2 49.6514 28.1972 13.8944 
159 2 51.4393 26.4093 12.1065 
160 2 53.2271 28.1972 13.8944 
161 2 55.015 26.4093 12.1065 
162 2 56.8028 28.1972 13.8944 
163 2 58.5907 26.4093 12.1065 
164 2 60.3785 28.1972 13.8944 
165 2 62.1664 26.4093 12.1065 
166 2 63.9542 28.1972 13.8944 
167 2 65.7421 26.4093 12.1065 
168 2 67.5299 28.1972 13.8944 
169 2 69.3178 26.4093 12.1065 
170 2 71.1056 28.1972 13.8944 
171 2 12.1065 29.985 12.1065 
172 2 13.8944 31.7729 13.8944 
173 2 15.6822 29.985 12.1065 
174 2 17.4701 31.7729 13.8944 
175 2 19.2579 29.985 12.1065 
176 2 21.0458 31.7729 13.8944 
177 2 22.8336 29.985 12.1065 
178 2 24.6215 31.7729 13.8944 
179 2 26.4093 29.985 12.1065 
180 2 28.1972 31.7729 13.8944 
181 2 29.985 29.985 12.1065 
182 2 31.7729 31.7729 13.8944 
183 2 33.5607 29.985 12.1065 
184 2 35.3486 31.7729 13.8944 
185 2 37.1364 29.985 12.1065 
186 2 38.9243 31.7729 13.8944 
187 2 40.7121 29.985 12.1065 
188 2 42.5 31.7729 13.8944 
189 2 44.2879 29.985 12.1065 
190 2 46.0757 31.7729 13.8944 
191 2 47.8636 29.985 12.1065 
192 2 49.6514 31.7729 13.8944 
193 2 51.4393 29.985 12.1065 
194 2 53.2271 31.7729 13.8944 
195 2 55.015 29.985 12.1065 
196 2 56.8028 31.7729 13.8944 
197 2 58.5907 29.985 12.1065 
198 2 60.3785 31.7729 13.8944 
199 2 62.1664 29.985 12.1065 
200 2 63.9542 31.7729 13.8944 
201 2 65.7421 29.985 12.1065 
202 2 67.5299 31.7729 13.8944 
203 2 69.3178 29.985 12.1065 
204 2 71.1056 31.7729 13.8944 
205 2 12.1065 33.5607 12.1065 
206 2 13.8944 35.3486 13.8944 
207 2 15.6822 33.5607 12.1065 
208 2 17.4701 35.3486 13.8944 
209 2 19.2579 33.5607 12.1065 
210 2 21.0458 35.3486 13.8944 
211 2 22.8336 33.5607 12.1065 
212 2 24.6215 35.3486 13.8944 
213 2 26.4093 33.5607 12.1065 
214 2 28.1972 35.3486 13.8944 
215 2 29.985 33.5607 12.1065 
216 2 31.7729 35.3486 13.8944 
217 2 33.5607 33.5607 12.1065 
218 2 35.3486 35.3486 13.8944 
219 2 37.1364 33.5607 12.1065 
220 2 38.9243 35.3486 13.8944 
221 2 40.7121 33.5607 12.1065 
222 2 42.5 35.3486 13.8944 
223 2 44.2879 33.5607 12.1065 
224 2 46.0757 35.3486 13.8944 
225 2 47.8636 33.5607 12.1065 
226 2 49.6514 35.3486 13.8944 
227 2 51.4393 33.5607 12.1065 
228 2 53.2271 35.3486 13.8944 
229 2 55.015 33.5607 12.1065 
230 2 56.8028 35.3486 13.8944 
231 2 58.5907 33.5607 12.1065 
232 2 60.3785 35.3486 13.8944 
233 2 62.1664 33.5607 12.1065 
234 2 63.9542 35.3486 13.8944 
235 2 65.7421 33.5607 12.1065 
236 2 67.5299 35.3486 13.8944 
237 2 69.3178 33.5607 12.1065 
238 2 71.1056 35.3486 13.8944 
239 2 12.1065 37.1364 12.1065 
240 2 13.8944 38.9243 13.8944 
241 2 15.6822 37.1364 12.1065 
242 2 17.4701 38.9243 13.8944 
243 2 19.2579 37.1364 12.1065 
244 2 21.0458 38.9243 13.8944 
245 2 22.8336 37.1364 12.1065 
246 2 24.6215 38.9243 13.8944 
247 2 26.4093 37.1364 12.1065 
248 2 28.1972 38.9243 13.8944 
249 2 29.985 37.1364 12.1065 
250 2 31.7729 38.9243 13.8944 
251 2 33.5607 37.1364 12.1065 
252 2 35.3486 38.9243 13.8944 
253 2 37.1364 37.1364 12.1065 
254 2 38.9243 38.9243 13.8944 
255 2 40.7121 37.1364 12.1065 
256 2 42.5 38.9243 13.8944 
257 2 44.2879 37.1364 12.1065 
258 2 46.0757 38.9243 13.8944 
259 2 47.8636 37.1364 12.1065 
260 2 49.6514 38.9243 13.8944 
261 2 51.4393 37.1364 12.1065 
262 2 53.2271 38.9243 13.8944 
263 2 55.015 37.1364 12.1065 
264 2 56.8028 38.9243 13.8944 
265 2 58.5907 37.1364 12.1065 
266 2 60.3785 38.9243 13.8944 
267 2 62.1664 37.1364 12.1065 
268 2 63.9542 38.9243 13.8944 
269 2 65.7421 37.1364 12.1065 
270 2 67.5299 38.9243 13.8944 
271 2 69.3178 37.1364 12.1065 
272 2 71.1056 38.9243 13.8944 
273 2 12.1065 40.7121 12.1065 
274 2 13.8944 42.5 13.8944 
275 2 15.6822 40.7121 12.1065 
276 2 17.4701 42.5 13.8944 
277 2 19.2579 40.7121 12.1065 
278 2 21.0458 42.5 13.8944 
279 2 22.8336 40.7121 12.1065 
280 2 24.6215 42.5 13.8944 
281 2 26.4093 40.7121 12.1065 
282 2 28.1972 42.5 13.8944 
283 2 29.985 40.7121 12.1065 
284 2 31.7729 42.5 13.8944 
285 2 33.5607 40.7121 12.1065 
286 2 35.3486 42.5 13.8944 
287 2 37.1364 40.7121 12.1065 
288 2 38.9243 42.5 13.8944 
289 2 40.7121 40.7121 12.1065 
290 2 42.5 42.5 13.8944 
291 2 44.2879 40.7121 12.1065 
292 2 46.0757 42.5 13.8944 
293 2 47.8636 40.7121 12.1065 
294 2 49.6514 42.5 13.8944 
295 2 51.4393 40.7121 12.1065 
296 2 53.2271 42.5 13.8944 
297 2 55.015 40.7121 12.1065 
298 2 56.8028 42.5 13.8944 
299 2 58.5907 40.7121 12.1065 
300 2 60.3785 42.5 13.8944 
301 2 62.1664 40.7121 12.1065 
302 2 63.9542 42.5 13.8944 
303 2 65.7421 40.7121 12.1065 
304 2 67.5299 42.5 13.8944 
305 2 69.3178 40.7121 12.1065 
306 2 71.1056 42.5 13.8944 
307 2 12.1065 44.2879 12.1065 
308 2 13.8944 46.0757 13.8944 
309 2 15.6822 44.2879 12.1065 
310 2 17.4701 46.0757 13.8944 
311 2 19.2579 44.2879 12.1065 
312 2 21.0458 46.0757 13.8944 
313 2 22.8336 44.2879 12.1065 
314 2 24.6215 46.0757 13.8944 
315 2 26.4093 44.2879 12.1065 
316 2 28.1972 46.0757 13.8944 
317 2 29.985 44.2879 12.1065 
318 2 31.7729 46.0757 13.8944 
319 2 33.5607 44.2879 12.1065 
320 2 35.3486 46.0757 13.8944 
321 2 37.1364 44.2879 12.1065 
322 2 38.9243 46.0757 13.8944 
323 2 40.7121 44.2879 12.1065 
324 2 42.5 46.0757 13.8944 
325 2 44.2879 44.2879 12.1065 
326 2 46.0757 46.0757 13.8944 
327 2 47.8636 44.2879 12.1065 
328 2 49.6514 46.0757 13.8944 
329 2 51.4393 44.2879 12.1065 
330 2 53.2271 46.0757 13.8944 
331 2 55.015 44.2879 12.1065 
332 2 56.8028 46.0757 13.8944 
333 2 58.5907 44.2879 12.1065 
334 2 60.3785 46.0757 13.8944 
335 2 62.1664 44.2879 12.1065 
336 2 63.9542 46.0757 13.8944 
337 2 65.7421 44.2879 12.1065 
338 2 67.5299 46.0757 13.8944 
339 2 69.3178 44.2879 12.1065 
340 2 71.1056 46.0757 13.8944 
341 2 12.1065 47.8636 12.1065 
342 2 13.8944 49.6514 13.8944 
343 2 15.6822 47.8636 12.1065 
344 2 17.4701 49.6514 13.8944 
345 2 19.2579 47.8636 12.1065 
346 2 21.0458 49.6514 13.8944 
347 2 22.8336 47.8636 12.1065 
348 2 24.6215 49.6514 13.8944 
349 2 26.4093 47.8636 12.1065 
350 2 28.1972 49.6514 13.8944 
351 2 29.985 47.8636 12.1065 
352 2 31.7729 49.6514 13.8944 
353 2 33.5607 47.8636 12.1065 
354 2 35.3486 49.6514 13.8944 
355 2 37.1364 47.8636 12.1065 
356 2 38.9243 49.6514 13.8944 
357 2 40.7121 47.8636 12.1065 
358 2 42.5 49.6514 13.8944 
359 2 44.2879 47.8636 12.1065 
360 2 46.0757 49.6514 13.8944 
361 2 47.8636 47.8636 12.1065 
362 2 49.6514 49.6514 13.8944 
363 2 51.4393 47.8636 12.1065 
364 2 53.2271 49.6514 13.8944 
365 2 55.015 47.8636 12.1065 
366 2 56.8028 49.6514 13.8944 
367 2 58.5907 47.8636 12.1065 
368 2 60.3785 49.6514 13.8944 
369 2 62.1664 47.8636 12.1065 
370 2 63.9542 49.6514 13.8944 
371 2 65.7421 47.8636 12.1065 
372 2 67.5299 49.6514 13.8944 
373 2 69.3178 47.8636 12.1065 
374 2 71.1056 49.6514 13.8944 
375 2 12.1065 51.4393 12.1065 
376 2 13.8944 53.2271 13.8944 
377 2 15.6822 51.4393 12.1065 
378 2 17.4701 53.2271 13.8944 
379 2 19.2579 51.4393 12.1065 
380 2 21.0458 53.2271 13.8944 
381 2 22.8336 51.4393 12.1065 
382 2 24.6215 53.2271 13.8944 
383 2 26.4093 51.4393 12.1065 
384 2 28.1972 53.2271 13.8944 
385 2 29.985 51.4393 12.1065 
386 2 31.7729 53.2271 13.8944 
387 2 33.5607 51.4393 12.1065 
388 2 35.3486 53.2271 13.8944 
389 2 37.1364 51.4393 12.1065 
390 2 38.9243 53.2271 13.8944 
391 2 40.7121 51.4393 12.1065 
392 2 42.5 53.2271 13.8944 
393 2 44.2879 51.4393 12.1065 
394 2 46.0757 53.2271 13.8944 
395 2 47.8636 51.4393 12.1065 
396 2 49.6514 53.2271 13.8944 
397 2 51.4393 51.4393 12.1065 
398 2 53.2271 53.2271 13.8944 
399 2 55.015 51.4393 12.1065 
400 2 56.8028 53.2271 13.8944 
401 2 58.5907 51.4393 12.1065 
402 2 60.3785 53.2271 13.8944 
403 2 62.1664 51.4393 12.1065 
404 2 63.9542 53.2271 13.8944 
405 2 65.7421 51.4393 12.1065 
406 2 67.5299 53.2271 13.8944 
407 2 69.3178 51.4393 12.1065 
408 2 71.1056 53.2271 13.8944 
409 2 12.1065 55.015 12.1065 
410 2 13.8944 56.8028 13.8944 
411 2 15.6822 55.015 12.1065 
412 2 17.4701 56.8028 13.8944 
413 2 19.2579 55.015 12.1065 
414 2 21.0458 56.8028 13.8944 
415 2 22.8336 55.015 12.1065 
416 2 24.6215 56.8028 13.8944 
417 2 26.4093 55.015 12.1065 
418 2 28.1972 56.8028 13.8944 
419 2 29.985 55.015 12.1065 
420 2 31.7729 56.8028 13.8944 
421 2 33.5607 55.015 12.1065 
422 2 35.3486 56.8028 13.8944 
423 2 37.1364 55.015 12.1065 
424 2 38.9243 56.8028 13.8944 
425 2 40.7121 55.015 12.1065 
426 2 42.5 56.8028 13.8944 
427 2 44.2879 55.015 12.1065 
428 2 46.0757 56.8028 13.8944 
429 2 47.8636 55.015 12.1065 
430 2 49.6514 56.8028 13.8944 
431 2 51.4393 55.015 12.1065 
432 2 53.2271 56.8028 13.8944 
433 2 55.015 55.015 12.1065 
434 2 56.8028 56.8028 13.8944 
435 2 58.5907 55.015 12.1065 
436 2 60.3785 56.8028 13.8944 
437 2 62.1664 55.015 12.1065 
438 2 63.9542 56.8028 13.8944 
439 2 65.7421 55.015 12.1065 
440 2 67.5299 56.8028 13.8944 
441 2 69.3178 55.015 12.1065 
442 2 71.1056 56.8028 13.8944 
443 2 12.1065 58.5907 12.1065 
444 2 13.8944 60.3785 13.8944 
445 2 15.6822 58.5907 12.1065 
446 2 17.4701 60.3785 13.8944 
447 2 19.2579 58.5907 12.1065 
448 2 21.0458 60.3785 13.8944 
449 2 22.8336 58.5907 12.1065 
450 2 24.6215 60.3785 13.8944 
451 2 26.4093 58.5907 12.1065 
452 2 28.1972 60.3785 13.8944 
453 2 29.985 58.5907 12.1065 
454 2 31.7729 60.3785 13.8944 
455 2 33.5607 58.5907 12.1065 
456 2 35.3486 60.3785 13.8944 
457 2 37.1364 58.5907 12.1065 
458 2 38.9243 60.3785 13.8944 
459 2 40.7121 58.5907 12.1065 
460 2 42.5 60.3785 13.8944 
461 2 44.2879 58.5907 12.1065 
462 2 46.0757 60.3785 13.8944 
463 2 47.8636 58.5907 12.1065 
464 2 49.6514 60.3785 13.8944 
465 2 51.4393 58.5907 12.1065 
466 2 53.2271 60.3785 13.8944 
467 2 55.015 58.5907 12.1065 
468 2 56.8028 60.3785 13.8944 
469 2 58.5907 58.5907 12.1065 
470 2 60.3785 60.3785 13.8944 
471 2 62.1664 58.5907 12.1065 
472 2 63.9542 60.3785 13.8944 
473 2 65.7421 58.5907 12.1065 
474 2 67.5299 60.3785 13.8944 
475 2 69.3178 58.5907 12.1065 
476 2 71.1056 60.3785 13.8944 
477 2 12.1065 62.1664 12.1065 
478 2 13.8944 63.9542 13.8944 
479 2 15.6822 62.1664 12.1065 
480 2 17.4701 63.9542 13.8944 
481 2 19.2579 62.1664 12.1065 
482 2 21.0458 63.9542 13.8944 
483 2 22.8336 62.1664 12.1065 
484 2 24.6215 63.9542 13.8944 
485 2 26.4093 62.1664 12.1065 
486 2 28.1972 63.9542 13.8944 
487 2 29.985 62.1664 12.1065 
488 2 31.7729 63.9542 13.8944 
489 2 33.5607 62.1664 12.1065 
490 2 35.3486 63.9542 13.8944 
491 2 37.1364 62.1664 12.1065 
492 2 38.9243 63.9542 13.8944 
493 2 40.7121 62.1664 12.1065 
494 2 42.5 63.9542 13.8944 
495 2 44.2879 62.1664 12.1065 
496 2 46.0757 63.9542 13.8944 
497 2 47.8636 62.1664 12.1065 
498 2 49.6514 63.9542 13.8944 
499 2 51.4393 62.1664 12.1065 
500 2 53.2271 63.9542 13.8944 
501 2 55.015 62.1664 12.1065 
502 2 56.8028 63.9542 13.8944 
503 2 58.5907 62.1664 12.1065 
504 2 60.3785 63.9542 13.8944 
505 2 62.1664 62.1664 12.1065 
506 2 63.9542 63.9542 13.8944 
507 2 65.7421 62.1664 12.1065 
508 2 67.5299 63.9542 13.8944 
509 2 69.3178 62.1664 12.1065 
510 2 71.1056 63.9542 13.8944 
511 2 12.1065 65.7421 12.1065 
512 2 13.8944 67.5299 13.8944 
513 2 15.6822 65.7421 12.1065 
514 2 17.4701 67.5299 13.8944 
515 2 19.2579 65.7421 12.1065 
516 2 21.0458 67.5299 13.8944 
517 2 22.8336 65.7421 12.1065 
518 2 24.6215 67.5299 13.8944 
519 2 26.4093 65.7421 12.1065 
520 2 28.1972 67.5299 13.8944 
521 2 29.985 65.7421 12.1065 
522 2 31.7729 67.5299 13.8944 
523 2 33.5607 65.7421 12.1065 
524 2 35.3486 67.5299 13.8944 
525 2 37.1364 65.7421 12.1065 
526 2 38.9243 67.5299 13.8944 
527 2 40.7121 65.7421 12.1065 
528 2 42.5 67.5299 13.8944 
529 2 44.2879 65.7421 12.1065 
530 2 46.0757 67.5299 13.8944 
531 2 47.8636 65.7421 12.1065 
532 2 49.6514 67.5299 13.8944 
533 2 51.4393 65.7421 12.1065 
534 2 53.2271 67.5299 13.8944 
535 2 55.015 65.7421 12.1065 
536 2 56.8028 67.5299 13.8944 
537 2 58.5907 65.7421 12.1065 
538 2 60.3785 67.5299 13.8944 
539 2 62.1664 65.7421 12.1065 
540 2 63.9542 67.5299 13.8944 
541 2 65.7421 65.7421 12.1065 
542 2 67.5299 67.5299 13.8944 
543 2 69.3178 65.7421 12.1065 
544 2 71.1056 67.5299 13.8944 
545 2 12.1065 69.3178 12.1065 
546 2 13.8944 71.1056 13.8944 
547 2 15.6822 69.3178 12.1065 
548 2 17.4701 71.1056 13.8944 
549 2 19.2579 69.3178 12.1065 
550 2 21.0458 71.1056 13.8944 
551 2 22.8336 69.3178 12.1065 
552 2 24.6215 71.1056 13.8944 
553 2 26.4093 69.3178 12.1065 
554 2 28.1972 71.1056 13.8944 
555 2 29.985 69.3178 12.1065 
556 2 31.7729 71.1056 13.8944 
557 2 33.5607 69.3178 12.1065 
558 2 35.3486 71.1056 13.8944 
559 2 37.1364 69.3178 12.1065 
560 2 38.9243 71.1056 13.8944 
561 2 40.7121 69.3178 12.1065 
562 2 42.5 71.1056 13.8944 
563 2 44.2879 69.3178 12.1065 
564 2 46.0757 71.1056 13.8944 
565 2 47.8636 69.3178 12.1065 
566 2 49.6514 71.1056 13.8944 
567 2 51.4393 69.3178 12.1065 
568 2 53.2271 71.1056 13.8944 
569 2 55.015 69.3178 12.1065 
570 2 56.8028 71.1056 13.8944 
571 2 58.5907 69.3178 12.1065 
572 2 60.3785 71.1056 13.8944 
573 2 62.1664 69.3178 12.1065 
574 2 63.9542 71.1056 13.8944 
575 2 65.7421 69.3178 12.1065 
576 2 67.5299 71.1056 13.8944 
577 2 69.3178 69.3178 12.1065 
578 2 71.1056 71.1056 13.8944 
579 2 12.1065 12.1065 15.6822 
580 2 13.8944 13.8944 17.4701 
581 2 15.6822 12.1065 15.6822 
582 2 17.4701 13.8944 17.4701 
583 2 19.2579 12.1065 15.6822 
584 2 21.0458 13.8944 17.4701 
585 2 22.8336 12.1065 15.6822 
586 2 24.6215 13.8944 17.4701 
587 2 26.4093 12.1065 15.6822 
588 2 28.1972 13.8944 17.4701 
589 2 29.985 12.1065 15.6822 
590 2 31.7729 13.8944 17.4701 
591 2 33.5607 12.1065 15.6822 
592 2 35.3486 13.8944 17.4701 
593 2 37.1364 12.1065 15.6822 
594 2 38.9243 13.8944 17.4701 
595 2 40.7121 12.1065 15.6822 
596 2 42.5 13.8944 17.4701 
597 2 44.2879 12.1065 15.6822 
598 2 46.0757 13.8944 17.4701 
599 2 47.8636 12.1065 15.6822 
600 2 49.6514 13.8944 17.4701 
601 2 51.4393 12.1065 15.6822 
602 2 53.2271 13.8944 17.4701 
603 2 55.015 12.1065 15.6822 
604 2 56.8028 13.8944 17.4701 
605 2 58.5907 12.1065 15.6822 
606 2 60.3785 13.8944 17.4701 
607 2 62.1664 12.1065 15.6822 
608 2 63.9542 13.8944 17.4701 
609 2 65.7421 12.1065 15.6822 
610 2 67.5299 13.8944 17.4701 
611 2 69.3178 12.1065 15.6822 
612 2 71.1056 13.8944 17.4701 
613 2 12.1065 15.6822 15.6822 
614 2 13.8944 17.4701 17.4701 
615 2 15.6822 15.6822 15.6822 
616 2 17.4701 17.4701 17.4701 
617 2 19.2579 15.6822 15.6822 
618 2 21.0458 17.4701 17.4701 
619 2 22.8336 15.6822 15.6822 
620 2 24.6215 17.4701 17.4701 
621 2 26.4093 15.6822 15.6822 
622 2 28.1972 17.4701 17.4701 
623 2 29.985 15.6822 15.6822 
624 2 31.7729 17.4701 17.4701 
625 2 33.5607 15.6822 15.6822 
626 2 35.3486 17.4701 17.4701 
627 2 37.1364 15.6822 15.6822 
628 2 38.9243 17.4701 17.4701 
629 2 40.7121 15.6822 15.6822 
630 2 42.5 17.4701 17.4701 
631 2 44.2879 15.6822 15.6822 
632 2 46.0757 17.4701 17.4701 
633 2 47.8636 15.6822 15.6822 
634 2 49.6514 17.4701 17.4701 
635 2 51.4393 15.6822 15.6822 
636 2 53.2271 17.4701 17.4701 
637 2 55.015 15.6822 15.6822 
638 2 56.8028 17.4701 17.4701 
639 2 58.5907 15.6822 15.6822 
640 2 60.3785 17.4701 17.4701 
641 2 62.1664 15.6822 15.6822 
642 2 63.9542 17.4701 17.4701 
643 2 65.7421 15.6822 15.6822 
644 2 67.5299 17.4701 17.4701 
645 2 69.3178 15.6822 15.6822 
646 2 71.1056 17.4701 17.4701 
647 2 12.1065 19.2579 15.6822 
648 2 13.8944 21.0458 17.4701 
649 2 15.6822 19.2579 15.6822 
650 2 17.4701 21.0458 17.4701 
651 2 19.2579 19.2579 15.6822 
652 2 21.0458 21.0458 17.4701 
653 2 22.8336 19.2579 15.6822 
654 2 24.6215 21.0458 17.4701 
655 2 26.4093 19.2579 15.6822 
656 2 28.1972 21.0458 17.4701 
657 2 29.985 19.2579 15.6822 
658 2 31.7729 21.0458 17.4701 
659 2 33.5607 19.2579 15.6822 
660 2 35.3486 21.0458 17.4701 
661 2 37.1364 19.2579 15.6822 
662 2 38.9243 21.0458 17.4701 
663 2 40.7121 19.2579 15.6822 
664 2 42.5 21.0458 17.4701 
665 2 44.2879 19.2579 15.6822 
666 2 46.0757 21.0458 17.4701 
667 2 47.8636 19.2579 15.6822 
668 2 49.6514 21.0458 17.4701 
669 2 51.4393 19.2579 15.6822 
670 2 53.2271 21.0458 17.4701 
671 2 55.015 19.2579 15.6822 
672 2 56.8028 21.0458 17.4701 
673 2 58.5907 19.2579 15.6822 
674 2 60.3785 21.0458 17.4701 
675 2 62.1664 19.2579 15.6822 
676 2 63.9542 21.0458 17.4701 
677 2 65.7421 19.2579 15.6822 
678 2 67.5299 21.0458 17.4701 
679 2 69.3178 19.2579 15.6822 
680 2 71.1056 21.0458 17.4701 
681 2 12.1065 22.8336 15.6822 
682 2 13.8944 24.6215 17.4701 
683 2 15.6822 22.8336 15.6822 
684 2 17.4701 24.6215 17.4701 
685 2 19.2579 22.8336 15.6822 
686 2 21.0458 24.6215 17.4701 
687 2 22.8336 22.8336 15.6822 
688 2 24.6215 24.6215 17.4701 
689 2 26.4093 22.8336 15.6822 
690 2 28.1972 24.6215 17.4701 
691 2 29.985 22.8336 15.6822 
692 2 31.7729 24.6215 17.4701 
693 2 33.5607 22.8336 15.6822 
694 2 35.3486 24.6215 17.4701 
695 2 37.1364 22.8336 15.6822 
696 2 38.9243 24.6215 17.4701 
697 2 40.7121 22.8336 15.6822 
698 2 42.5 24.6215 17.4701 
699 2 44.2879 22.8336 15.6822 
700 2 46.0757 24.6215 17.4701 
701 2 47.8636 22.8336 15.6822 
702 2 49.6514 24.6215 17.4701 
703 2 51.4393 22.8336 15.6822 
704 2 53.2271 24.6215 17.4701 
705 2 55.015 22.8336 15.6822 
706 2 56.8028 24.6215 17.4701 
707 2 58.5907 22.8336 15.6822 
708 2 60.3785 24.6215 17.4701 
709 2 62.1664 22.8336 15.6822 
710 2 63.9542 24.6215 17.4701 
711 2 65.7421 22.8336 15.6822 
712 2 67.5299 24.6215 17.4701 
713 2 69.3178 22.8336 15.6822 
714 2 71.1056 24.6215 17.4701 
715 2 12.1065 26.4093 15.6822 
716 2 13.8944 28.1972 17.4701 
717 2 15.6822 26.4093 15.6822 
718 2 17.4701 28.1972 17.4701 
719 2 19.2579 26.4093 15.6822 
720 2 21.0458 28.1972 17.4701 
721 2 22.8336 26.4093 15.6822 
722 2 24.6215 28.1972 17.4701 
723 2 26.4093 26.4093 15.6822 
724 2 28.1972 28.1972 17.4701 
725 2 29.985 26.4093 15.6822 
726 2 31.7729 28.1972 17.4701 
727 2 33.5607 26.4093 15.6822 
728 2 35.3486 28.1972 17.4701 
729 2 37.1364 26.4093 15.6822 
730 2 38.9243 28.1972 17.4701 
731 2 40.7121 26.4093 15.6822 
732 2 42.5 28.1972 17.4701 
733 2 44.2879 26.4093 15.6822 
734 2 46.0757 28.1972 17.4701 
735 2 47.8636 26.4093 15.6822 
736 2 49.6514 28.1972 17.4701 
737 2 51.4393 26.4093 15.6822 
738 2 53.2271 28.1972 17.4701 
739 2 55.015 26.4093 15.6822 
740 2 56.8028 28.1972 17.4701 
741 2 58.5907 26.4093 15.6822 
742 2 60.3785 28.1972 17.4701 
743 2 62.1664 26.4093 15.6822 
744 2 63.9542 28.1972 17.4701 
745 2 65.7421 26.4093 15.6822 
746 2 67.5299 28.1972 17.4701 
747 2 69.3178 26.4093 15.6822 
748 2 71.1056 28.1972 17.4701 
749 2 12.1065 29.985 15.6822 
750 2 13.8944 31.7729 17.4701 
751 2 15.6822 29.985 15.6822 
752 2 17.4701 31.7729 17.4701 
753 2 19.2579 29.985 15.6822 
754 2 21.0458 31.7729 17.4701 
755 2 22.8336 29.985 15.6822 
756 2 24.6215 31.7729 17.4701 
757 2 26.4093 29.985 15.6822 
758 2 28.1972 31.7729 17.4701 
759 2 29.985 29.985 15.6822 
760 2 31.7729 31.7729 17.4701 
761 2 33.5607 29.985 15.6822 
762 2 35.3486 31.7729 17.4701 
763 2 37.1364 29.985 15.6822 
764 2 38.9243 31.7729 17.4701 
765 2 40.7121 29.985 15.6822 
766 2 42.5 31.7729 17.4701 
767 2 44.2879 29.985 15.6822 
768 2 46.0757 31.7729 17.4701 
769 2 47.8636 29.985 15.6822 
770 2 49.6514 31.7729 17.4701 
771 2 51.4393 29.985 15.6822 
772 2 53.2271 31.7729 17.4701 
773 2 55.015 29.985 15.6822 
774 2 56.8028 31.7729 17.4701 
775 2 58.5907 29.985 15.6822 
776 2 60.3785 31.7729 17.4701 
777 2 62.1664 29.985 15.6822 
778 2 63.9542 31.7729 17.4701 
779 2 65.7421 29.985 15.6822 
780 2 67.5299 31.7729 17.4701 
781 2 69.3178 29.985 15.6822 
782 2 71.1056 31.7729 17.4701 
783 2 12.1065 33.5607 15.6822 
784 2 13.8944 35.3486 17.4701 
785 2 15.6822 33.5607 15.6822 
786 2 17.4701 35.3486 17.4701 
787 2 19.2579 33.5607 15.6822 
788 2 21.0458 35.3486 17.4701 
789 2 22.8336 33.5607 15.6822 
790 2 24.6215 35.3486 17.4701 
791 2 26.4093 33.5607 15.6822 
792 2 28.1972 35.3486 17.4701 
793 2 29.985 33.5607 15.6822 
794 2 31.7729 35.3486 17.4701 
795 2 33.5607 33.5607 15.6822 
796 2 35.3486 35.3486 17.4701 
797 2 37.1364 33.5607 15.6822 
798 2 38.9243 35.3486 17.4701 
799 2 40.7121 33.5607 15.6822 
800 2 42.5 35.3486 17.4701 
801 2 44.2879 33.5607 15.6822 
802 2 46.0757 35.3486 17.4701 
803 2 47.8636 33.5607 15.6822 
804 2 49.6514 35.3486 17.4701 
805 2 51.4393 33.5607 15.6822 
806 2 53.2271 35.3486 17.4701 
807 2 55.015 33.5607 15.6822 
808 2 56.8028 35.3486 17.4701 
809 2 58.5907 33.5607 15.6822 
810 2 60.3785 35.3486 17.4701 
811 2 62.1664 33.5607 15.6822 
812 2 63.9542 35.3486 17.4701 
813 2 65.7421 33.5607 15.6822 
814 2 67.5299 35.3486 17.4701 
815 2 69.3178 33.5607 15.6822 
816 2 71.1056 35.3486 17.4701 
817 2 12.1065 37.1364 15.6822 
818 2 13.8944 38.9243 17.4701 
819 2 15.6822 37.1364 15.6822 
820 2 17.4701 38.9243 17.4701 
821 2 19.2579 37.1364 15.6822 
822 2 21.0458 38.9243 17.4701 
823 2 22.8336 37.1364 15.6822 
824 2 24.6215 38.9243 17.4701 
825 2 26.4093 37.1364 15.6822 
826 2 28.1972 38.9243 17.4701 
827 2 29.985 37.1364 15.6822 
828 2 31.7729 38.9243 17.4701 
829 2 33.5607 37.1364 15.6822 
830 2 35.3486 38.9243 17.4701 
831 2 37.1364 37.1364 15.6822 
832 2 38.9243 38.9243 17.4701 
833 2 40.7121 37.1364 15.6822 
834 2 42.5 38.9243 17.4701 
835 2 44.2879 37.1364 15.6822 
836 2 46.0757 38.9243 17.4701 
837 2 47.8636 37.1364 15.6822 
838 2 49.6514 38.9243 17.4701 
839 2 51.4393 37.1364 15.6822 
840 2 53.2271 38.9243 17.4701 
841 2 55.015 37.1364 15.6822 
842 2 56.8028 38.9243 17.4701 
843 2 58.5907 37.1364 15.6822 
844 2 60.3785 38.9243 17.4701 
845 2 62.1664 37.1364 15.6822 
846 2 63.9542 38.9243 17.4701 
847 2 65.7421 37.1364 15.6822 
848 2 67.5299 38.9243 17.4701 
849 2 69.3178 37.1364 15.6822 
850 2 71.1056 38.9243 17.4701 
851 2 12.1065 40.7121 15.6822 
852 2 13.8944 42.5 17.4701 
853 2 15.6822 40.7121 15.6822 
854 2 17.4701 42.5 17.4701 
855 2 19.2579 40.7121 15.6822 
856 2 21.0458 42.5 17.4701 
857 2 22.8336 40.7121 15.6822 
858 2 24.6215 42.5 17.4701 
859 2 26.4093 40.7121 15.6822 
860 2 28.1972 42.5 17.4701 
861 2 29.985 40.7121 15.6822 
862 2 31.7729 42.5 17.4701 
863 2 33.5607 40.7121 15.6822 
864 2 35.3486 42.5 17.4701 
865 2 37.1364 40.7121 15.6822 
866 2 38.9243 42.5 17.4701 
867 2 40.7121 40.7121 15.6822 
868 2 42.5 42.5 17.4701 
869 2 44.2879 40.7121 15.6822 
870 2 46.0757 42.5 17.4701 
871 2 47.8636 40.7121 15.6822 
872 2 49.6514 42.5 17.4701 
873 2 51.4393 40.7121 15.6822 
874 2 53.2271 42.5 17.4701 
875 2 55.015 40.7121 15.6822 
876 2 56.8028 42.5 17.4701 
877 2 58.5907 40.7121 15.6822 
878 2 60.3785 42.5 17.4701 
879 2 62.1664 40.7121 15.6822 
880 2 63.9542 42.5 17.4701 
881 2 65.7421 40.7121 15.6822 
882 2 67.5299 42.5 17.4701 
883 2 69.3178 40.7121 15.6822 
884 2 71.1056 42.5 17.4701 
885 2 12.1065 44.2879 15.6822 
886 2 13.8944 46.0757 17.4701 
887 2 15.6822 44.2879 15.6822 
888 2 17.4701 46.0757 17.4701 
889 2 19.2579 44.2879 15.6822 
890 2 21.0458 46.0757 17.4701 
891 2 22.8336 44.2879 15.6822 
892 2 24.6215 46.0757 17.4701 
893 2 26.4093 44.2879 15.6822 
894 2 28.1972 46.0757 17.4701 
895 2 29.985 44.2879 15.6822 
896 2 31.7729 46.0757 17.4701 
897 2 33.5607 44.2879 15.6822 
898 2 35.3486 46.0757 17.4701 
899 2 37.1364 44.2879 15.6822 
900 2 38.9243 46.0757 17.4701 
901 2 40.7121 44.2879 15.6822 
902 2 42.5 46.0757 17.4701 
903 2 44.2879 44.2879 15.6822 
904 2 46.0757 46.0757 17.4701 
905 2 47.8636 44.2879 15.6822 
906 2 49.6514 46.0757 17.4701 
907 2 51.4393 44.2879 15.6822 
908 2 53.2271 46.0757 17.4701 
909 2 55.015 44.2879 15.6822 
910 2 56.8028 46.0757 17.4701 
911 2 58.5907 44.2879 15.6822 
912 2 60.3785 46.0757 17.4701 
913 2 62.1664 44.2879 15.6822 
914 2 63.9542 46.0757 17.4701 
915 2 65.7421 44.2879 15.6822 
916 2 67.5299 46.0757 17.4701 
917 2 69.3178 44.2879 15.6822 
918 2 71.1056 46.0757 17.4701 
919 2 12.1065 47.8636 15.6822 
920 2 13.8944 49.6514 17.4701 
921 2 15.6822 47.8636 15.6822 
922 2 17.4701 49.6514 17.4701 
923 2 19.2579 47.8636 15.6822 
924 2 21.0458 49.6514 17.4701 
925 2 22.8336 47.8636 15.6822 
926 2 24.6215 49.6514 17.4701 
927 2 26.4093 47.8636 15.6822 
928 2 28.1972 49.6514 17.4701 
929 2 29.985 47.8636 15.6822 
930 2 31.7729 49.6514 17.4701 
931 2 33.5607 47.8636 15.6822 
932 2 35.3486 49.6514 17.4701 
933 2 37.1364 47.8636 15.6822 
934 2 38.9243 49.6514 17.4701 
935 2 40.7121 47.8636 15.6822 
936 2 42.5 49.6514 17.4701 
937 2 44.2879 47.8636 15.6822 
938 2 46.0757 49.6514 17.4701 
939 2 47.8636 47.8636 15.6822 
940 2 49.6514 49.6514 17.4701 
941 2 51.4393 47.8636 15.6822 
942 2 53.2271 49.6514 17.4701 
943 2 55.015 47.8636 15.6822 
944 2 56.8028 49.6514 17.4701 
945 2 58.5907 47.8636 15.6822 
946 2 60.3785 49.6514 17.4701 
947 2 62.1664 47.8636 15.6822 
948 2 63.9542 49.6514 17.4701 
949 2 65.7421 47.8636 15.6822 
950 2 67.5299 49.6514 17.4701 
951 2 69.3178 47.8636 15.6822 
952 2 71.1056 49.6514 17.4701 
953 2 12.1065 51.4393 15.6822 
954 2 13.8944 53.2271 17.4701 
955 2 15.6822 51.4393 15.6822 
956 2 17.4701 53.2271 17.4701 
957 2 19.2579 51.4393 15.6822 
958 2 21.0458 53.2271 17.4701 
959 2 22.8336 51.4393 15.6822 
960 2 24.6215 53.2271 17.4701 
961 2 26.4093 51.4393 15.6822 
962 2 28.1972 53.2271 17.4701 
963 2 29.985 51.4393 15.6822 
964 2 31.7729 53.2271 17.4701 
965 2 33.5607 51.4393 15.6822 
966 2 35.3486 53.2271 17.4701 
967 2 37.1364 51.4393 15.6822 
968 2 38.9243 53.2271 17.4701 
969 2 40.7121 51.4393 15.6822 
970 2 42.5 53.2271 17.4701 
971 2 44.2879 51.4393 15.6822 
972 2 46.0757 53.2271 17.4701 
973 2 47.8636 51.4393 15.6822 