ITEM: TIMESTEP
50
ITEM: NUMBER OF ATOMS
19652
ITEM: BOX BOUNDS pp pp pp
1.0064550430248751e+01 7.4935449569751000e+01
1.7432312700529991e+01 1.2979200594282506e+02
1.6435342029745559e+01 1.2236907672796758e+02
ITEM: ATOMS id type xu yu zu 
1 2 10.0646 17.4323 16.4353 
2 2 11.9725 20.737 16.4353 
3 2 11.9725 22.9401 19.551 
4 2 10.0646 19.6354 19.551 
5 2 13.8805 17.4323 16.4353 
6 2 15.7885 20.737 16.4353 
7 2 15.7885 22.9401 19.551 
8 2 13.8805 19.6354 19.551 
9 2 17.6964 17.4323 16.4353 
10 2 19.6044 20.737 16.4353 
11 2 19.6044 22.9401 19.551 
12 2 17.6964 19.6354 19.551 
13 2 21.5124 17.4323 16.4353 
14 2 23.4203 20.737 16.4353 
15 2 23.4203 22.9401 19.551 
16 2 21.5124 19.6354 19.551 
17 2 25.3283 17.4323 16.4353 
18 2 27.2363 20.737 16.4353 
19 2 27.2363 22.9401 19.551 
20 2 25.3283 19.6354 19.551 
21 2 29.1442 17.4323 16.4353 
22 2 31.0522 20.737 16.4353 
23 2 31.0522 22.9401 19.551 
24 2 29.1442 19.6354 19.551 
25 2 32.9602 17.4323 16.4353 
26 2 34.8681 20.737 16.4353 
27 2 34.8681 22.9401 19.551 
28 2 32.9602 19.6354 19.551 
29 2 36.7761 17.4323 16.4353 
30 2 38.6841 20.737 16.4353 
31 2 38.6841 22.9401 19.551 
32 2 36.7761 19.6354 19.551 
33 2 40.592 17.4323 16.4353 
34 2 42.5 20.737 16.4353 
35 2 42.5 22.9401 19.551 
36 2 40.592 19.6354 19.551 
37 2 44.408 17.4323 16.4353 
38 2 46.3159 20.737 16.4353 
39 2 46.3159 22.9401 19.551 
40 2 44.408 19.6354 19.551 
41 2 48.2239 17.4323 16.4353 
42 2 50.1319 20.737 16.4353 
43 2 50.1319 22.9401 19.551 
44 2 48.2239 19.6354 19.551 
45 2 52.0398 17.4323 16.4353 
46 2 53.9478 20.737 16.4353 
47 2 53.9478 22.9401 19.551 
48 2 52.0398 19.6354 19.551 
49 2 55.8558 17.4323 16.4353 
50 2 57.7637 20.737 16.4353 
51 2 57.7637 22.9401 19.551 
52 2 55.8558 19.6354 19.551 
53 2 59.6717 17.4323 16.4353 
54 2 61.5797 20.737 16.4353 
55 2 61.5797 22.9401 19.551 
56 2 59.6717 19.6354 19.551 
57 2 63.4876 17.4323 16.4353 
58 2 65.3956 20.737 16.4353 
59 2 65.3956 22.9401 19.551 
60 2 63.4876 19.6354 19.551 
61 2 67.3036 17.4323 16.4353 
62 2 69.2115 20.737 16.4353 
63 2 69.2115 22.9401 19.551 
64 2 67.3036 19.6354 19.551 
65 2 71.1195 17.4323 16.4353 
66 2 73.0275 20.737 16.4353 
67 2 73.0275 22.9401 19.551 
68 2 71.1195 19.6354 19.551 
69 2 10.0646 24.0417 16.4353 
70 2 11.9725 27.3464 16.4353 
71 2 11.9725 29.5495 19.551 
72 2 10.0646 26.2448 19.551 
73 2 13.8805 24.0417 16.4353 
74 2 15.7885 27.3464 16.4353 
75 2 15.7885 29.5495 19.551 
76 2 13.8805 26.2448 19.551 
77 2 17.6964 24.0417 16.4353 
78 2 19.6044 27.3464 16.4353 
79 2 19.6044 29.5495 19.551 
80 2 17.6964 26.2448 19.551 
81 2 21.5124 24.0417 16.4353 
82 2 23.4203 27.3464 16.4353 
83 2 23.4203 29.5495 19.551 
84 2 21.5124 26.2448 19.551 
85 2 25.3283 24.0417 16.4353 
86 2 27.2363 27.3464 16.4353 
87 2 27.2363 29.5495 19.551 
88 2 25.3283 26.2448 19.551 
89 2 29.1442 24.0417 16.4353 
90 2 31.0522 27.3464 16.4353 
91 2 31.0522 29.5495 19.551 
92 2 29.1442 26.2448 19.551 
93 2 32.9602 24.0417 16.4353 
94 2 34.8681 27.3464 16.4353 
95 2 34.8681 29.5495 19.551 
96 2 32.9602 26.2448 19.551 
97 2 36.7761 24.0417 16.4353 
98 2 38.6841 27.3464 16.4353 
99 2 38.6841 29.5495 19.551 
100 2 36.7761 26.2448 19.551 
101 2 40.592 24.0417 16.4353 
102 2 42.5 27.3464 16.4353 
103 2 42.5 29.5495 19.551 
104 2 40.592 26.2448 19.551 
105 2 44.408 24.0417 16.4353 
106 2 46.3159 27.3464 16.4353 
107 2 46.3159 29.5495 19.551 
108 2 44.408 26.2448 19.551 
109 2 48.2239 24.0417 16.4353 
110 2 50.1319 27.3464 16.4353 
111 2 50.1319 29.5495 19.551 
112 2 48.2239 26.2448 19.551 
113 2 52.0398 24.0417 16.4353 
114 2 53.9478 27.3464 16.4353 
115 2 53.9478 29.5495 19.551 
116 2 52.0398 26.2448 19.551 
117 2 55.8558 24.0417 16.4353 
118 2 57.7637 27.3464 16.4353 
119 2 57.7637 29.5495 19.551 
120 2 55.8558 26.2448 19.551 
121 2 59.6717 24.0417 16.4353 
122 2 61.5797 27.3464 16.4353 
123 2 61.5797 29.5495 19.551 
124 2 59.6717 26.2448 19.551 
125 2 63.4876 24.0417 16.4353 
126 2 65.3956 27.3464 16.4353 
127 2 65.3956 29.5495 19.551 
128 2 63.4876 26.2448 19.551 
129 2 67.3036 24.0417 16.4353 
130 2 69.2115 27.3464 16.4353 
131 2 69.2115 29.5495 19.551 
132 2 67.3036 26.2448 19.551 
133 2 71.1195 24.0417 16.4353 
134 2 73.0275 27.3464 16.4353 
135 2 73.0275 29.5495 19.551 
136 2 71.1195 26.2448 19.551 
137 2 10.0646 30.6511 16.4353 
138 2 11.9725 33.9558 16.4353 
139 2 11.9725 36.1589 19.551 
140 2 10.0646 32.8542 19.551 
141 2 13.8805 30.6511 16.4353 
142 2 15.7885 33.9558 16.4353 
143 2 15.7885 36.1589 19.551 
144 2 13.8805 32.8542 19.551 
145 2 17.6964 30.6511 16.4353 
146 2 19.6044 33.9558 16.4353 
147 2 19.6044 36.1589 19.551 
148 2 17.6964 32.8542 19.551 
149 2 21.5124 30.6511 16.4353 
150 2 23.4203 33.9558 16.4353 
151 2 23.4203 36.1589 19.551 
152 2 21.5124 32.8542 19.551 
153 2 25.3283 30.6511 16.4353 
154 2 27.2363 33.9558 16.4353 
155 2 27.2363 36.1589 19.551 
156 2 25.3283 32.8542 19.551 
157 2 29.1442 30.6511 16.4353 
158 2 31.0522 33.9558 16.4353 
159 2 31.0522 36.1589 19.551 
160 2 29.1442 32.8542 19.551 
161 2 32.9602 30.6511 16.4353 
162 2 34.8681 33.9558 16.4353 
163 2 34.8681 36.1589 19.551 
164 2 32.9602 32.8542 19.551 
165 2 36.7761 30.6511 16.4353 
166 2 38.6841 33.9558 16.4353 
167 2 38.6841 36.1589 19.551 
168 2 36.7761 32.8542 19.551 
169 2 40.592 30.6511 16.4353 
170 2 42.5 33.9558 16.4353 
171 2 42.5 36.1589 19.551 
172 2 40.592 32.8542 19.551 
173 2 44.408 30.6511 16.4353 
174 2 46.3159 33.9558 16.4353 
175 2 46.3159 36.1589 19.551 
176 2 44.408 32.8542 19.551 
177 2 48.2239 30.6511 16.4353 
178 2 50.1319 33.9558 16.4353 
179 2 50.1319 36.1589 19.551 
180 2 48.2239 32.8542 19.551 
181 2 52.0398 30.6511 16.4353 
182 2 53.9478 33.9558 16.4353 
183 2 53.9478 36.1589 19.551 
184 2 52.0398 32.8542 19.551 
185 2 55.8558 30.6511 16.4353 
186 2 57.7637 33.9558 16.4353 
187 2 57.7637 36.1589 19.551 
188 2 55.8558 32.8542 19.551 
189 2 59.6717 30.6511 16.4353 
190 2 61.5797 33.9558 16.4353 
191 2 61.5797 36.1589 19.551 
192 2 59.6717 32.8542 19.551 
193 2 63.4876 30.6511 16.4353 
194 2 65.3956 33.9558 16.4353 
195 2 65.3956 36.1589 19.551 
196 2 63.4876 32.8542 19.551 
197 2 67.3036 30.6511 16.4353 
198 2 69.2115 33.9558 16.4353 
199 2 69.2115 36.1589 19.551 
200 2 67.3036 32.8542 19.551 
201 2 71.1195 30.6511 16.4353 
202 2 73.0275 33.9558 16.4353 
203 2 73.0275 36.1589 19.551 
204 2 71.1195 32.8542 19.551 
205 2 10.0646 37.2605 16.4353 
206 2 11.9725 40.5652 16.4353 
207 2 11.9725 42.7683 19.551 
208 2 10.0646 39.4636 19.551 
209 2 13.8805 37.2605 16.4353 
210 2 15.7885 40.5652 16.4353 
211 2 15.7885 42.7683 19.551 
212 2 13.8805 39.4636 19.551 
213 2 17.6964 37.2605 16.4353 
214 2 19.6044 40.5652 16.4353 
215 2 19.6044 42.7683 19.551 
216 2 17.6964 39.4636 19.551 
217 2 21.5124 37.2605 16.4353 
218 2 23.4203 40.5652 16.4353 
219 2 23.4203 42.7683 19.551 
220 2 21.5124 39.4636 19.551 
221 2 25.3283 37.2605 16.4353 
222 2 27.2363 40.5652 16.4353 
223 2 27.2363 42.7683 19.551 
224 2 25.3283 39.4636 19.551 
225 2 29.1442 37.2605 16.4353 
226 2 31.0522 40.5652 16.4353 
227 2 31.0522 42.7683 19.551 
228 2 29.1442 39.4636 19.551 
229 2 32.9602 37.2605 16.4353 
230 2 34.8681 40.5652 16.4353 
231 2 34.8681 42.7683 19.551 
232 2 32.9602 39.4636 19.551 
233 2 36.7761 37.2605 16.4353 
234 2 38.6841 40.5652 16.4353 
235 2 38.6841 42.7683 19.551 
236 2 36.7761 39.4636 19.551 
237 2 40.592 37.2605 16.4353 
238 2 42.5 40.5652 16.4353 
239 2 42.5 42.7683 19.551 
240 2 40.592 39.4636 19.551 
241 2 44.408 37.2605 16.4353 
242 2 46.3159 40.5652 16.4353 
243 2 46.3159 42.7683 19.551 
244 2 44.408 39.4636 19.551 
245 2 48.2239 37.2605 16.4353 
246 2 50.1319 40.5652 16.4353 
247 2 50.1319 42.7683 19.551 
248 2 48.2239 39.4636 19.551 
249 2 52.0398 37.2605 16.4353 
250 2 53.9478 40.5652 16.4353 
251 2 53.9478 42.7683 19.551 
252 2 52.0398 39.4636 19.551 
253 2 55.8558 37.2605 16.4353 
254 2 57.7637 40.5652 16.4353 
255 2 57.7637 42.7683 19.551 
256 2 55.8558 39.4636 19.551 
257 2 59.6717 37.2605 16.4353 
258 2 61.5797 40.5652 16.4353 
259 2 61.5797 42.7683 19.551 
260 2 59.6717 39.4636 19.551 
261 2 63.4876 37.2605 16.4353 
262 2 65.3956 40.5652 16.4353 
263 2 65.3956 42.7683 19.551 
264 2 63.4876 39.4636 19.551 
265 2 67.3036 37.2605 16.4353 
266 2 69.2115 40.5652 16.4353 
267 2 69.2115 42.7683 19.551 
268 2 67.3036 39.4636 19.551 
269 2 71.1195 37.2605 16.4353 
270 2 73.0275 40.5652 16.4353 
271 2 73.0275 42.7683 19.551 
272 2 71.1195 39.4636 19.551 
273 2 10.0646 43.8699 16.4353 
274 2 11.9725 47.1746 16.4353 
275 2 11.9725 49.3777 19.551 
276 2 10.0646 46.073 19.551 
277 2 13.8805 43.8699 16.4353 
278 2 15.7885 47.1746 16.4353 
279 2 15.7885 49.3777 19.551 
280 2 13.8805 46.073 19.551 
281 2 17.6964 43.8699 16.4353 
282 2 19.6044 47.1746 16.4353 
283 2 19.6044 49.3777 19.551 
284 2 17.6964 46.073 19.551 
285 2 21.5124 43.8699 16.4353 
286 2 23.4203 47.1746 16.4353 
287 2 23.4203 49.3777 19.551 
288 2 21.5124 46.073 19.551 
289 2 25.3283 43.8699 16.4353 
290 2 27.2363 47.1746 16.4353 
291 2 27.2363 49.3777 19.551 
292 2 25.3283 46.073 19.551 
293 2 29.1442 43.8699 16.4353 
294 2 31.0522 47.1746 16.4353 
295 2 31.0522 49.3777 19.551 
296 2 29.1442 46.073 19.551 
297 2 32.9602 43.8699 16.4353 
298 2 34.8681 47.1746 16.4353 
299 2 34.8681 49.3777 19.551 
300 2 32.9602 46.073 19.551 
301 2 36.7761 43.8699 16.4353 
302 2 38.6841 47.1746 16.4353 
303 2 38.6841 49.3777 19.551 
304 2 36.7761 46.073 19.551 
305 2 40.592 43.8699 16.4353 
306 2 42.5 47.1746 16.4353 
307 2 42.5 49.3777 19.551 
308 2 40.592 46.073 19.551 
309 2 44.408 43.8699 16.4353 
310 2 46.3159 47.1746 16.4353 
311 2 46.3159 49.3777 19.551 
312 2 44.408 46.073 19.551 
313 2 48.2239 43.8699 16.4353 
314 2 50.1319 47.1746 16.4353 
315 2 50.1319 49.3777 19.551 
316 2 48.2239 46.073 19.551 
317 2 52.0398 43.8699 16.4353 
318 2 53.9478 47.1746 16.4353 
319 2 53.9478 49.3777 19.551 
320 2 52.0398 46.073 19.551 
321 2 55.8558 43.8699 16.4353 
322 2 57.7637 47.1746 16.4353 
323 2 57.7637 49.3777 19.551 
324 2 55.8558 46.073 19.551 
325 2 59.6717 43.8699 16.4353 
326 2 61.5797 47.1746 16.4353 
327 2 61.5797 49.3777 19.551 
328 2 59.6717 46.073 19.551 
329 2 63.4876 43.8699 16.4353 
330 2 65.3956 47.1746 16.4353 
331 2 65.3956 49.3777 19.551 
332 2 63.4876 46.073 19.551 
333 2 67.3036 43.8699 16.4353 
334 2 69.2115 47.1746 16.4353 
335 2 69.2115 49.3777 19.551 
336 2 67.3036 46.073 19.551 
337 2 71.1195 43.8699 16.4353 
338 2 73.0275 47.1746 16.4353 
339 2 73.0275 49.3777 19.551 
340 2 71.1195 46.073 19.551 
341 2 10.0646 50.4793 16.4353 
342 2 11.9725 53.784 16.4353 
343 2 11.9725 55.9871 19.551 
344 2 10.0646 52.6824 19.551 
345 2 13.8805 50.4793 16.4353 
346 2 15.7885 53.784 16.4353 
347 2 15.7885 55.9871 19.551 
348 2 13.8805 52.6824 19.551 
349 2 17.6964 50.4793 16.4353 
350 2 19.6044 53.784 16.4353 
351 2 19.6044 55.9871 19.551 
352 2 17.6964 52.6824 19.551 
353 2 21.5124 50.4793 16.4353 
354 2 23.4203 53.784 16.4353 
355 2 23.4203 55.9871 19.551 
356 2 21.5124 52.6824 19.551 
357 2 25.3283 50.4793 16.4353 
358 2 27.2363 53.784 16.4353 
359 2 27.2363 55.9871 19.551 
360 2 25.3283 52.6824 19.551 
361 2 29.1442 50.4793 16.4353 
362 2 31.0522 53.784 16.4353 
363 2 31.0522 55.9871 19.551 
364 2 29.1442 52.6824 19.551 
365 2 32.9602 50.4793 16.4353 
366 2 34.8681 53.784 16.4353 
367 2 34.8681 55.9871 19.551 
368 2 32.9602 52.6824 19.551 
369 2 36.7761 50.4793 16.4353 
370 2 38.6841 53.784 16.4353 
371 2 38.6841 55.9871 19.551 
372 2 36.7761 52.6824 19.551 
373 2 40.592 50.4793 16.4353 
374 2 42.5 53.784 16.4353 
375 2 42.5 55.9871 19.551 
376 2 40.592 52.6824 19.551 
377 2 44.408 50.4793 16.4353 
378 2 46.3159 53.784 16.4353 
379 2 46.3159 55.9871 19.551 
380 2 44.408 52.6824 19.551 
381 2 48.2239 50.4793 16.4353 
382 2 50.1319 53.784 16.4353 
383 2 50.1319 55.9871 19.551 
384 2 48.2239 52.6824 19.551 
385 2 52.0398 50.4793 16.4353 
386 2 53.9478 53.784 16.4353 
387 2 53.9478 55.9871 19.551 
388 2 52.0398 52.6824 19.551 
389 2 55.8558 50.4793 16.4353 
390 2 57.7637 53.784 16.4353 
391 2 57.7637 55.9871 19.551 
392 2 55.8558 52.6824 19.551 
393 2 59.6717 50.4793 16.4353 
394 2 61.5797 53.784 16.4353 
395 2 61.5797 55.9871 19.551 
396 2 59.6717 52.6824 19.551 
397 2 63.4876 50.4793 16.4353 
398 2 65.3956 53.784 16.4353 
399 2 65.3956 55.9871 19.551 
400 2 63.4876 52.6824 19.551 
401 2 67.3036 50.4793 16.4353 
402 2 69.2115 53.784 16.4353 
403 2 69.2115 55.9871 19.551 
404 2 67.3036 52.6824 19.551 
405 2 71.1195 50.4793 16.4353 
406 2 73.0275 53.784 16.4353 
407 2 73.0275 55.9871 19.551 
408 2 71.1195 52.6824 19.551 
409 2 10.0646 57.0887 16.4353 
410 2 11.9725 60.3934 16.4353 
411 2 11.9725 62.5965 19.551 
412 2 10.0646 59.2918 19.551 
413 2 13.8805 57.0887 16.4353 
414 2 15.7885 60.3934 16.4353 
415 2 15.7885 62.5965 19.551 
416 2 13.8805 59.2918 19.551 
417 2 17.6964 57.0887 16.4353 
418 2 19.6044 60.3934 16.4353 
419 2 19.6044 62.5965 19.551 
420 2 17.6964 59.2918 19.551 
421 2 21.5124 57.0887 16.4353 
422 2 23.4203 60.3934 16.4353 
423 2 23.4203 62.5965 19.551 
424 2 21.5124 59.2918 19.551 
425 2 25.3283 57.0887 16.4353 
426 2 27.2363 60.3934 16.4353 
427 2 27.2363 62.5965 19.551 
428 2 25.3283 59.2918 19.551 
429 2 29.1442 57.0887 16.4353 
430 2 31.0522 60.3934 16.4353 
431 2 31.0522 62.5965 19.551 
432 2 29.1442 59.2918 19.551 
433 2 32.9602 57.0887 16.4353 
434 2 34.8681 60.3934 16.4353 
435 2 34.8681 62.5965 19.551 
436 2 32.9602 59.2918 19.551 
437 2 36.7761 57.0887 16.4353 
438 2 38.6841 60.3934 16.4353 
439 2 38.6841 62.5965 19.551 
440 2 36.7761 59.2918 19.551 
441 2 40.592 57.0887 16.4353 
442 2 42.5 60.3934 16.4353 
443 2 42.5 62.5965 19.551 
444 2 40.592 59.2918 19.551 
445 2 44.408 57.0887 16.4353 
446 2 46.3159 60.3934 16.4353 
447 2 46.3159 62.5965 19.551 
448 2 44.408 59.2918 19.551 
449 2 48.2239 57.0887 16.4353 
450 2 50.1319 60.3934 16.4353 
451 2 50.1319 62.5965 19.551 
452 2 48.2239 59.2918 19.551 
453 2 52.0398 57.0887 16.4353 
454 2 53.9478 60.3934 16.4353 
455 2 53.9478 62.5965 19.551 
456 2 52.0398 59.2918 19.551 
457 2 55.8558 57.0887 16.4353 
458 2 57.7637 60.3934 16.4353 
459 2 57.7637 62.5965 19.551 
460 2 55.8558 59.2918 19.551 
461 2 59.6717 57.0887 16.4353 
462 2 61.5797 60.3934 16.4353 
463 2 61.5797 62.5965 19.551 
464 2 59.6717 59.2918 19.551 
465 2 63.4876 57.0887 16.4353 
466 2 65.3956 60.3934 16.4353 
467 2 65.3956 62.5965 19.551 
468 2 63.4876 59.2918 19.551 
469 2 67.3036 57.0887 16.4353 
470 2 69.2115 60.3934 16.4353 
471 2 69.2115 62.5965 19.551 
472 2 67.3036 59.2918 19.551 
473 2 71.1195 57.0887 16.4353 
474 2 73.0275 60.3934 16.4353 
475 2 73.0275 62.5965 19.551 
476 2 71.1195 59.2918 19.551 
477 2 10.0646 63.6981 16.4353 
478 2 11.9725 67.0028 16.4353 
479 2 11.9725 69.2059 19.551 
480 2 10.0646 65.9012 19.551 
481 2 13.8805 63.6981 16.4353 
482 2 15.7885 67.0028 16.4353 
483 2 15.7885 69.2059 19.551 
484 2 13.8805 65.9012 19.551 
485 2 17.6964 63.6981 16.4353 
486 2 19.6044 67.0028 16.4353 
487 2 19.6044 69.2059 19.551 
488 2 17.6964 65.9012 19.551 
489 2 21.5124 63.6981 16.4353 
490 2 23.4203 67.0028 16.4353 
491 2 23.4203 69.2059 19.551 
492 2 21.5124 65.9012 19.551 
493 2 25.3283 63.6981 16.4353 
494 2 27.2363 67.0028 16.4353 
495 2 27.2363 69.2059 19.551 
496 2 25.3283 65.9012 19.551 
497 2 29.1442 63.6981 16.4353 
498 2 31.0522 67.0028 16.4353 
499 2 31.0522 69.2059 19.551 
500 2 29.1442 65.9012 19.551 
501 2 32.9602 63.6981 16.4353 
502 2 34.8681 67.0028 16.4353 
503 2 34.8681 69.2059 19.551 
504 2 32.9602 65.9012 19.551 
505 2 36.7761 63.6981 16.4353 
506 2 38.6841 67.0028 16.4353 
507 2 38.6841 69.2059 19.551 
508 2 36.7761 65.9012 19.551 
509 2 40.592 63.6981 16.4353 
510 2 42.5 67.0028 16.4353 
511 2 42.5 69.2059 19.551 
512 2 40.592 65.9012 19.551 
513 2 44.408 63.6981 16.4353 
514 2 46.3159 67.0028 16.4353 
515 2 46.3159 69.2059 19.551 
516 2 44.408 65.9012 19.551 
517 2 48.2239 63.6981 16.4353 
518 2 50.1319 67.0028 16.4353 
519 2 50.1319 69.2059 19.551 
520 2 48.2239 65.9012 19.551 
521 2 52.0398 63.6981 16.4353 
522 2 53.9478 67.0028 16.4353 
523 2 53.9478 69.2059 19.551 
524 2 52.0398 65.9012 19.551 
525 2 55.8558 63.6981 16.4353 
526 2 57.7637 67.0028 16.4353 
527 2 57.7637 69.2059 19.551 
528 2 55.8558 65.9012 19.551 
529 2 59.6717 63.6981 16.4353 
530 2 61.5797 67.0028 16.4353 
531 2 61.5797 69.2059 19.551 
532 2 59.6717 65.9012 19.551 
533 2 63.4876 63.6981 16.4353 
534 2 65.3956 67.0028 16.4353 
535 2 65.3956 69.2059 19.551 
536 2 63.4876 65.9012 19.551 
537 2 67.3036 63.6981 16.4353 
538 2 69.2115 67.0028 16.4353 
539 2 69.2115 69.2059 19.551 
540 2 67.3036 65.9012 19.551 
541 2 71.1195 63.6981 16.4353 
542 2 73.0275 67.0028 16.4353 
543 2 73.0275 69.2059 19.551 
544 2 71.1195 65.9012 19.551 
545 2 10.0646 70.3075 16.4353 
546 2 11.9725 73.6122 16.4353 
547 2 11.9725 75.8153 19.551 
548 2 10.0646 72.5106 19.551 
549 2 13.8805 70.3075 16.4353 
550 2 15.7885 73.6122 16.4353 
551 2 15.7885 75.8153 19.551 
552 2 13.8805 72.5106 19.551 
553 2 17.6964 70.3075 16.4353 
554 2 19.6044 73.6122 16.4353 
555 2 19.6044 75.8153 19.551 
556 2 17.6964 72.5106 19.551 
557 2 21.5124 70.3075 16.4353 
558 2 23.4203 73.6122 16.4353 
559 2 23.4203 75.8153 19.551 
560 2 21.5124 72.5106 19.551 
561 2 25.3283 70.3075 16.4353 
562 2 27.2363 73.6122 16.4353 
563 2 27.2363 75.8153 19.551 
564 2 25.3283 72.5106 19.551 
565 2 29.1442 70.3075 16.4353 
566 2 31.0522 73.6122 16.4353 
567 2 31.0522 75.8153 19.551 
568 2 29.1442 72.5106 19.551 
569 2 32.9602 70.3075 16.4353 
570 2 34.8681 73.6122 16.4353 
571 2 34.8681 75.8153 19.551 
572 2 32.9602 72.5106 19.551 
573 2 36.7761 70.3075 16.4353 
574 2 38.6841 73.6122 16.4353 
575 2 38.6841 75.8153 19.551 
576 2 36.7761 72.5106 19.551 
577 2 40.592 70.3075 16.4353 
578 2 42.5 73.6122 16.4353 
579 2 42.5 75.8153 19.551 
580 2 40.592 72.5106 19.551 
581 2 44.408 70.3075 16.4353 
582 2 46.3159 73.6122 16.4353 
583 2 46.3159 75.8153 19.551 
584 2 44.408 72.5106 19.551 
585 2 48.2239 70.3075 16.4353 
586 2 50.1319 73.6122 16.4353 
587 2 50.1319 75.8153 19.551 
588 2 48.2239 72.5106 19.551 
589 2 52.0398 70.3075 16.4353 
590 2 53.9478 73.6122 16.4353 
591 2 53.9478 75.8153 19.551 
592 2 52.0398 72.5106 19.551 
593 2 55.8558 70.3075 16.4353 
594 2 57.7637 73.6122 16.4353 
595 2 57.7637 75.8153 19.551 
596 2 55.8558 72.5106 19.551 
597 2 59.6717 70.3075 16.4353 
598 2 61.5797 73.6122 16.4353 
599 2 61.5797 75.8153 19.551 
600 2 59.6717 72.5106 19.551 
601 2 63.4876 70.3075 16.4353 
602 2 65.3956 73.6122 16.4353 
603 2 65.3956 75.8153 19.551 
604 2 63.4876 72.5106 19.551 
605 2 67.3036 70.3075 16.4353 
606 2 69.2115 73.6122 16.4353 
607 2 69.2115 75.8153 19.551 
608 2 67.3036 72.5106 19.551 
609 2 71.1195 70.3075 16.4353 
610 2 73.0275 73.6122 16.4353 
611 2 73.0275 75.8153 19.551 
612 2 71.1195 72.5106 19.551 
613 2 10.0646 76.9169 16.4353 
614 2 11.9725 80.2216 16.4353 
615 2 11.9725 82.4247 19.551 
616 2 10.0646 79.12 19.551 
617 2 13.8805 76.9169 16.4353 
618 2 15.7885 80.2216 16.4353 
619 2 15.7885 82.4247 19.551 
620 2 13.8805 79.12 19.551 
621 2 17.6964 76.9169 16.4353 
622 2 19.6044 80.2216 16.4353 
623 2 19.6044 82.4247 19.551 
624 2 17.6964 79.12 19.551 
625 2 21.5124 76.9169 16.4353 
626 2 23.4203 80.2216 16.4353 
627 2 23.4203 82.4247 19.551 
628 2 21.5124 79.12 19.551 
629 2 25.3283 76.9169 16.4353 
630 2 27.2363 80.2216 16.4353 
631 2 27.2363 82.4247 19.551 
632 2 25.3283 79.12 19.551 
633 2 29.1442 76.9169 16.4353 
634 2 31.0522 80.2216 16.4353 
635 2 31.0522 82.4247 19.551 
636 2 29.1442 79.12 19.551 
637 2 32.9602 76.9169 16.4353 
638 2 34.8681 80.2216 16.4353 
639 2 34.8681 82.4247 19.551 
640 2 32.9602 79.12 19.551 
641 2 36.7761 76.9169 16.4353 
642 2 38.6841 80.2216 16.4353 
643 2 38.6841 82.4247 19.551 
644 2 36.7761 79.12 19.551 
645 2 40.592 76.9169 16.4353 
646 2 42.5 80.2216 16.4353 
647 2 42.5 82.4247 19.551 
648 2 40.592 79.12 19.551 
649 2 44.408 76.9169 16.4353 
650 2 46.3159 80.2216 16.4353 
651 2 46.3159 82.4247 19.551 
652 2 44.408 79.12 19.551 
653 2 48.2239 76.9169 16.4353 
654 2 50.1319 80.2216 16.4353 
655 2 50.1319 82.4247 19.551 
656 2 48.2239 79.12 19.551 
657 2 52.0398 76.9169 16.4353 
658 2 53.9478 80.2216 16.4353 
659 2 53.9478 82.4247 19.551 
660 2 52.0398 79.12 19.551 
661 2 55.8558 76.9169 16.4353 
662 2 57.7637 80.2216 16.4353 
663 2 57.7637 82.4247 19.551 
664 2 55.8558 79.12 19.551 
665 2 59.6717 76.9169 16.4353 
666 2 61.5797 80.2216 16.4353 
667 2 61.5797 82.4247 19.551 
668 2 59.6717 79.12 19.551 
669 2 63.4876 76.9169 16.4353 
670 2 65.3956 80.2216 16.4353 
671 2 65.3956 82.4247 19.551 
672 2 63.4876 79.12 19.551 
673 2 67.3036 76.9169 16.4353 
674 2 69.2115 80.2216 16.4353 
675 2 69.2115 82.4247 19.551 
676 2 67.3036 79.12 19.551 
677 2 71.1195 76.9169 16.4353 
678 2 73.0275 80.2216 16.4353 
679 2 73.0275 82.4247 19.551 
680 2 71.1195 79.12 19.551 
681 2 10.0646 83.5262 16.4353 
682 2 11.9725 86.8309 16.4353 
683 2 11.9725 89.0341 19.551 
684 2 10.0646 85.7294 19.551 
685 2 13.8805 83.5262 16.4353 
686 2 15.7885 86.8309 16.4353 
687 2 15.7885 89.0341 19.551 
688 2 13.8805 85.7294 19.551 
689 2 17.6964 83.5262 16.4353 
690 2 19.6044 86.8309 16.4353 
691 2 19.6044 89.0341 19.551 
692 2 17.6964 85.7294 19.551 
693 2 21.5124 83.5262 16.4353 
694 2 23.4203 86.8309 16.4353 
695 2 23.4203 89.0341 19.551 
696 2 21.5124 85.7294 19.551 
697 2 25.3283 83.5262 16.4353 
698 2 27.2363 86.8309 16.4353 
699 2 27.2363 89.0341 19.551 
700 2 25.3283 85.7294 19.551 
701 2 29.1442 83.5262 16.4353 
702 2 31.0522 86.8309 16.4353 
703 2 31.0522 89.0341 19.551 
704 2 29.1442 85.7294 19.551 
705 2 32.9602 83.5262 16.4353 
706 2 34.8681 86.8309 16.4353 
707 2 34.8681 89.0341 19.551 
708 2 32.9602 85.7294 19.551 
709 2 36.7761 83.5262 16.4353 
710 2 38.6841 86.8309 16.4353 
711 2 38.6841 89.0341 19.551 
712 2 36.7761 85.7294 19.551 
713 2 40.592 83.5262 16.4353 
714 2 42.5 86.8309 16.4353 
715 2 42.5 89.0341 19.551 
716 2 40.592 85.7294 19.551 
717 2 44.408 83.5262 16.4353 
718 2 46.3159 86.8309 16.4353 
719 2 46.3159 89.0341 19.551 
720 2 44.408 85.7294 19.551 
721 2 48.2239 83.5262 16.4353 
722 2 50.1319 86.8309 16.4353 
723 2 50.1319 89.0341 19.551 
724 2 48.2239 85.7294 19.551 
725 2 52.0398 83.5262 16.4353 
726 2 53.9478 86.8309 16.4353 
727 2 53.9478 89.0341 19.551 
728 2 52.0398 85.7294 19.551 
729 2 55.8558 83.5262 16.4353 
730 2 57.7637 86.8309 16.4353 
731 2 57.7637 89.0341 19.551 
732 2 55.8558 85.7294 19.551 
733 2 59.6717 83.5262 16.4353 
734 2 61.5797 86.8309 16.4353 
735 2 61.5797 89.0341 19.551 
736 2 59.6717 85.7294 19.551 
737 2 63.4876 83.5262 16.4353 
738 2 65.3956 86.8309 16.4353 
739 2 65.3956 89.0341 19.551 
740 2 63.4876 85.7294 19.551 
741 2 67.3036 83.5262 16.4353 
742 2 69.2115 86.8309 16.4353 
743 2 69.2115 89.0341 19.551 
744 2 67.3036 85.7294 19.551 
745 2 71.1195 83.5262 16.4353 
746 2 73.0275 86.8309 16.4353 
747 2 73.0275 89.0341 19.551 
748 2 71.1195 85.7294 19.551 
749 2 10.0646 90.1356 16.4353 
750 2 11.9725 93.4403 16.4353 
751 2 11.9725 95.6435 19.551 
752 2 10.0646 92.3388 19.551 
753 2 13.8805 90.1356 16.4353 
754 2 15.7885 93.4403 16.4353 
755 2 15.7885 95.6435 19.551 
756 2 13.8805 92.3388 19.551 
757 2 17.6964 90.1356 16.4353 
758 2 19.6044 93.4403 16.4353 
759 2 19.6044 95.6435 19.551 
760 2 17.6964 92.3388 19.551 
761 2 21.5124 90.1356 16.4353 
762 2 23.4203 93.4403 16.4353 
763 2 23.4203 95.6435 19.551 
764 2 21.5124 92.3388 19.551 
765 2 25.3283 90.1356 16.4353 
766 2 27.2363 93.4403 16.4353 
767 2 27.2363 95.6435 19.551 
768 2 25.3283 92.3388 19.551 
769 2 29.1442 90.1356 16.4353 
770 2 31.0522 93.4403 16.4353 
771 2 31.0522 95.6435 19.551 
772 2 29.1442 92.3388 19.551 
773 2 32.9602 90.1356 16.4353 
774 2 34.8681 93.4403 16.4353 
775 2 34.8681 95.6435 19.551 
776 2 32.9602 92.3388 19.551 
777 2 36.7761 90.1356 16.4353 
778 2 38.6841 93.4403 16.4353 
779 2 38.6841 95.6435 19.551 
780 2 36.7761 92.3388 19.551 
781 2 40.592 90.1356 16.4353 
782 2 42.5 93.4403 16.4353 
783 2 42.5 95.6435 19.551 
784 2 40.592 92.3388 19.551 
785 2 44.408 90.1356 16.4353 
786 2 46.3159 93.4403 16.4353 
787 2 46.3159 95.6435 19.551 
788 2 44.408 92.3388 19.551 
789 2 48.2239 90.1356 16.4353 
790 2 50.1319 93.4403 16.4353 
791 2 50.1319 95.6435 19.551 
792 2 48.2239 92.3388 19.551 
793 2 52.0398 90.1356 16.4353 
794 2 53.9478 93.4403 16.4353 
795 2 53.9478 95.6435 19.551 
796 2 52.0398 92.3388 19.551 
797 2 55.8558 90.1356 16.4353 
798 2 57.7637 93.4403 16.4353 
799 2 57.7637 95.6435 19.551 
800 2 55.8558 92.3388 19.551 
801 2 59.6717 90.1356 16.4353 
802 2 61.5797 93.4403 16.4353 
803 2 61.5797 95.6435 19.551 
804 2 59.6717 92.3388 19.551 
805 2 63.4876 90.1356 16.4353 
806 2 65.3956 93.4403 16.4353 
807 2 65.3956 95.6435 19.551 
808 2 63.4876 92.3388 19.551 
809 2 67.3036 90.1356 16.4353 
810 2 69.2115 93.4403 16.4353 
811 2 69.2115 95.6435 19.551 
812 2 67.3036 92.3388 19.551 
813 2 71.1195 90.1356 16.4353 
814 2 73.0275 93.4403 16.4353 
815 2 73.0275 95.6435 19.551 
816 2 71.1195 92.3388 19.551 
817 2 10.0646 96.745 16.4353 
818 2 11.9725 100.05 16.4353 
819 2 11.9725 102.253 19.551 
820 2 10.0646 98.9482 19.551 
821 2 13.8805 96.745 16.4353 
822 2 15.7885 100.05 16.4353 
823 2 15.7885 102.253 19.551 
824 2 13.8805 98.9482 19.551 
825 2 17.6964 96.745 16.4353 
826 2 19.6044 100.05 16.4353 
827 2 19.6044 102.253 19.551 
828 2 17.6964 98.9482 19.551 
829 2 21.5124 96.745 16.4353 
830 2 23.4203 100.05 16.4353 
831 2 23.4203 102.253 19.551 
832 2 21.5124 98.9482 19.551 
833 2 25.3283 96.745 16.4353 
834 2 27.2363 100.05 16.4353 
835 2 27.2363 102.253 19.551 
836 2 25.3283 98.9482 19.551 
837 2 29.1442 96.745 16.4353 
838 2 31.0522 100.05 16.4353 
839 2 31.0522 102.253 19.551 
840 2 29.1442 98.9482 19.551 
841 2 32.9602 96.745 16.4353 
842 2 34.8681 100.05 16.4353 
843 2 34.8681 102.253 19.551 
844 2 32.9602 98.9482 19.551 
845 2 36.7761 96.745 16.4353 
846 2 38.6841 100.05 16.4353 
847 2 38.6841 102.253 19.551 
848 2 36.7761 98.9482 19.551 
849 2 40.592 96.745 16.4353 
850 2 42.5 100.05 16.4353 
851 2 42.5 102.253 19.551 
852 2 40.592 98.9482 19.551 
853 2 44.408 96.745 16.4353 
854 2 46.3159 100.05 16.4353 
855 2 46.3159 102.253 19.551 
856 2 44.408 98.9482 19.551 
857 2 48.2239 96.745 16.4353 
858 2 50.1319 100.05 16.4353 
859 2 50.1319 102.253 19.551 
860 2 48.2239 98.9482 19.551 
861 2 52.0398 96.745 16.4353 
862 2 53.9478 100.05 16.4353 
863 2 53.9478 102.253 19.551 
864 2 52.0398 98.9482 19.551 
865 2 55.8558 96.745 16.4353 
866 2 57.7637 100.05 16.4353 
867 2 57.7637 102.253 19.551 
868 2 55.8558 98.9482 19.551 
869 2 59.6717 96.745 16.4353 
870 2 61.5797 100.05 16.4353 
871 2 61.5797 102.253 19.551 
872 2 59.6717 98.9482 19.551 
873 2 63.4876 96.745 16.4353 
874 2 65.3956 100.05 16.4353 
875 2 65.3956 102.253 19.551 
876 2 63.4876 98.9482 19.551 
877 2 67.3036 96.745 16.4353 
878 2 69.2115 100.05 16.4353 
879 2 69.2115 102.253 19.551 
880 2 67.3036 98.9482 19.551 
881 2 71.1195 96.745 16.4353 
882 2 73.0275 100.05 16.4353 
883 2 73.0275 102.253 19.551 
884 2 71.1195 98.9482 19.551 
885 2 10.0646 103.354 16.4353 
886 2 11.9725 106.659 16.4353 
887 2 11.9725 108.862 19.551 
888 2 10.0646 105.558 19.551 
889 2 13.8805 103.354 16.4353 
890 2 15.7885 106.659 16.4353 
891 2 15.7885 108.862 19.551 
892 2 13.8805 105.558 19.551 
893 2 17.6964 103.354 16.4353 
894 2 19.6044 106.659 16.4353 
895 2 19.6044 108.862 19.551 
896 2 17.6964 105.558 19.551 
897 2 21.5124 103.354 16.4353 
898 2 23.4203 106.659 16.4353 
899 2 23.4203 108.862 19.551 
900 2 21.5124 105.558 19.551 
901 2 25.3283 103.354 16.4353 
902 2 27.2363 106.659 16.4353 
903 2 27.2363 108.862 19.551 
904 2 25.3283 105.558 19.551 
905 2 29.1442 103.354 16.4353 
906 2 31.0522 106.659 16.4353 
907 2 31.0522 108.862 19.551 
908 2 29.1442 105.558 19.551 
909 2 32.9602 103.354 16.4353 
910 2 34.8681 106.659 16.4353 
911 2 34.8681 108.862 19.551 
912 2 32.9602 105.558 19.551 
913 2 36.7761 103.354 16.4353 
914 2 38.6841 106.659 16.4353 
915 2 38.6841 108.862 19.551 
916 2 36.7761 105.558 19.551 
917 2 40.592 103.354 16.4353 
918 2 42.5 106.659 16.4353 
919 2 42.5 108.862 19.551 
920 2 40.592 105.558 19.551 
921 2 44.408 103.354 16.4353 
922 2 46.3159 106.659 16.4353 
923 2 46.3159 108.862 19.551 
924 2 44.408 105.558 19.551 
925 2 48.2239 103.354 16.4353 
926 2 50.1319 106.659 16.4353 
927 2 50.1319 108.862 19.551 
928 2 48.2239 105.558 19.551 
929 2 52.0398 103.354 16.4353 
930 2 53.9478 106.659 16.4353 
931 2 53.9478 108.862 19.551 
932 2 52.0398 105.558 19.551 
933 2 55.8558 103.354 16.4353 
934 2 57.7637 106.659 16.4353 
935 2 57.7637 108.862 19.551 
936 2 55.8558 105.558 19.551 
937 2 59.6717 103.354 16.4353 
938 2 61.5797 106.659 16.4353 
939 2 61.5797 108.862 19.551 
940 2 59.6717 105.558 19.551 
941 2 63.4876 103.354 16.4353 
942 2 65.3956 106.659 16.4353 
943 2 65.3956 108.862 19.551 
944 2 63.4876 105.558 19.551 
945 2 67.3036 103.354 16.4353 
946 2 69.2115 106.659 16.4353 
947 2 69.2115 108.862 19.551 
948 2 67.3036 105.558 19.551 
949 2 71.1195 103.354 16.4353 
950 2 73.0275 106.659 16.4353 
951 2 73.0275 108.862 19.551 
952 2 71.1195 105.558 19.551 
953 2 10.0646 109.964 16.4353 
954 2 11.9725 113.269 16.4353 
955 2 11.9725 115.472 19.551 
956 2 10.0646 112.167 19.551 
957 2 13.8805 109.964 16.4353 
958 2 15.7885 113.269 16.4353 
959 2 15.7885 115.472 19.551 
960 2 13.8805 112.167 19.551 
961 2 17.6964 109.964 16.4353 
962 2 19.6044 113.269 16.4353 
963 2 19.6044 115.472 19.551 
964 2 17.6964 112.167 19.551 
965 2 21.5124 109.964 16.4353 
966 2 23.4203 113.269 16.4353 
967 2 23.4203 115.472 19.551 
968 2 21.5124 112.167 19.551 
969 2 25.3283 109.964 16.4353 
970 2 27.2363 113.269 16.4353 
971 2 27.2363 115.472 19.551 
972 2 25.3283 112.167 19.551 
973 2 29.1442 109.964 16.4353 
974 2 31.0522 113.269 16.4353 
975 2 31.0522 115.472 19.551 
976 2 29.1442 112.167 19.551 
977 2 32.9602 109.964 16.4353 
978 2 34.8681 113.269 16.4353 
979 2 34.8681 115.472 19.551 
980 2 32.9602 112.167 19.551 
981 2 36.7761 109.964 16.4353 
982 2 38.6841 113.269 16.4353 
983 2 38.6841 115.472 19.551 
984 2 36.7761 112.167 19.551 
985 2 40.592 109.964 16.4353 
986 2 42.5 113.269 16.4353 
987 2 42.5 115.472 19.551 
988 2 40.592 112.167 19.551 