ITEM: TIMESTEP
87
ITEM: NUMBER OF ATOMS
9826
ITEM: BOX BOUNDS pp pp pp
1.7971882237328920e+01 6.7028117762670760e+01
1.7971882237328920e+01 6.7028117762670760e+01
1.7971882237328920e+01 6.7028117762670760e+01
ITEM: ATOMS id type xu yu zu 
1 1 17.9719 17.9719 17.9719 
2 1 19.4147 19.4147 19.4147 
3 1 20.8575 17.9719 17.9719 
4 1 22.3004 19.4147 19.4147 
5 1 23.7432 17.9719 17.9719 
6 1 25.186 19.4147 19.4147 
7 1 26.6289 17.9719 17.9719 
8 1 28.0717 19.4147 19.4147 
9 1 29.5145 17.9719 17.9719 
10 1 30.9574 19.4147 19.4147 
11 1 32.4002 17.9719 17.9719 
12 1 33.843 19.4147 19.4147 
13 1 35.2858 17.9719 17.9719 
14 1 36.7287 19.4147 19.4147 
15 1 38.1715 17.9719 17.9719 
16 1 39.6143 19.4147 19.4147 
17 1 41.0572 17.9719 17.9719 
18 1 42.5 19.4147 19.4147 
19 1 43.9428 17.9719 17.9719 
20 1 45.3857 19.4147 19.4147 
21 1 46.8285 17.9719 17.9719 
22 1 48.2713 19.4147 19.4147 
23 1 49.7142 17.9719 17.9719 
24 1 51.157 19.4147 19.4147 
25 1 52.5998 17.9719 17.9719 
26 1 54.0426 19.4147 19.4147 
27 1 55.4855 17.9719 17.9719 
28 1 56.9283 19.4147 19.4147 
29 1 58.3711 17.9719 17.9719 
30 1 59.814 19.4147 19.4147 
31 1 61.2568 17.9719 17.9719 
32 1 62.6996 19.4147 19.4147 
33 1 64.1425 17.9719 17.9719 
34 1 65.5853 19.4147 19.4147 
35 1 17.9719 20.8575 17.9719 
36 1 19.4147 22.3004 19.4147 
37 1 20.8575 20.8575 17.9719 
38 1 22.3004 22.3004 19.4147 
39 1 23.7432 20.8575 17.9719 
40 1 25.186 22.3004 19.4147 
41 1 26.6289 20.8575 17.9719 
42 1 28.0717 22.3004 19.4147 
43 1 29.5145 20.8575 17.9719 
44 1 30.9574 22.3004 19.4147 
45 1 32.4002 20.8575 17.9719 
46 1 33.843 22.3004 19.4147 
47 1 35.2858 20.8575 17.9719 
48 1 36.7287 22.3004 19.4147 
49 1 38.1715 20.8575 17.9719 
50 1 39.6143 22.3004 19.4147 
51 1 41.0572 20.8575 17.9719 
52 1 42.5 22.3004 19.4147 
53 1 43.9428 20.8575 17.9719 
54 1 45.3857 22.3004 19.4147 
55 1 46.8285 20.8575 17.9719 
56 1 48.2713 22.3004 19.4147 
57 1 49.7142 20.8575 17.9719 
58 1 51.157 22.3004 19.4147 
59 1 52.5998 20.8575 17.9719 
60 1 54.0426 22.3004 19.4147 
61 1 55.4855 20.8575 17.9719 
62 1 56.9283 22.3004 19.4147 
63 1 58.3711 20.8575 17.9719 
64 1 59.814 22.3004 19.4147 
65 1 61.2568 20.8575 17.9719 
66 1 62.6996 22.3004 19.4147 
67 1 64.1425 20.8575 17.9719 
68 1 65.5853 22.3004 19.4147 
69 1 17.9719 23.7432 17.9719 
70 1 19.4147 25.186 19.4147 
71 1 20.8575 23.7432 17.9719 
72 1 22.3004 25.186 19.4147 
73 1 23.7432 23.7432 17.9719 
74 1 25.186 25.186 19.4147 
75 1 26.6289 23.7432 17.9719 
76 1 28.0717 25.186 19.4147 
77 1 29.5145 23.7432 17.9719 
78 1 30.9574 25.186 19.4147 
79 1 32.4002 23.7432 17.9719 
80 1 33.843 25.186 19.4147 
81 1 35.2858 23.7432 17.9719 
82 1 36.7287 25.186 19.4147 
83 1 38.1715 23.7432 17.9719 
84 1 39.6143 25.186 19.4147 
85 1 41.0572 23.7432 17.9719 
86 1 42.5 25.186 19.4147 
87 1 43.9428 23.7432 17.9719 
88 1 45.3857 25.186 19.4147 
89 1 46.8285 23.7432 17.9719 
90 1 48.2713 25.186 19.4147 
91 1 49.7142 23.7432 17.9719 
92 1 51.157 25.186 19.4147 
93 1 52.5998 23.7432 17.9719 
94 1 54.0426 25.186 19.4147 
95 1 55.4855 23.7432 17.9719 
96 1 56.9283 25.186 19.4147 
97 1 58.3711 23.7432 17.9719 
98 1 59.814 25.186 19.4147 
99 1 61.2568 23.7432 17.9719 
100 1 62.6996 25.186 19.4147 
101 1 64.1425 23.7432 17.9719 
102 1 65.5853 25.186 19.4147 
103 1 17.9719 26.6289 17.9719 
104 1 19.4147 28.0717 19.4147 
105 1 20.8575 26.6289 17.9719 
106 1 22.3004 28.0717 19.4147 
107 1 23.7432 26.6289 17.9719 
108 1 25.186 28.0717 19.4147 
109 1 26.6289 26.6289 17.9719 
110 1 28.0717 28.0717 19.4147 
111 1 29.5145 26.6289 17.9719 
112 1 30.9574 28.0717 19.4147 
113 1 32.4002 26.6289 17.9719 
114 1 33.843 28.0717 19.4147 
115 1 35.2858 26.6289 17.9719 
116 1 36.7287 28.0717 19.4147 
117 1 38.1715 26.6289 17.9719 
118 1 39.6143 28.0717 19.4147 
119 1 41.0572 26.6289 17.9719 
120 1 42.5 28.0717 19.4147 
121 1 43.9428 26.6289 17.9719 
122 1 45.3857 28.0717 19.4147 
123 1 46.8285 26.6289 17.9719 
124 1 48.2713 28.0717 19.4147 
125 1 49.7142 26.6289 17.9719 
126 1 51.157 28.0717 19.4147 
127 1 52.5998 26.6289 17.9719 
128 1 54.0426 28.0717 19.4147 
129 1 55.4855 26.6289 17.9719 
130 1 56.9283 28.0717 19.4147 
131 1 58.3711 26.6289 17.9719 
132 1 59.814 28.0717 19.4147 
133 1 61.2568 26.6289 17.9719 
134 1 62.6996 28.0717 19.4147 
135 1 64.1425 26.6289 17.9719 
136 1 65.5853 28.0717 19.4147 
137 1 17.9719 29.5145 17.9719 
138 1 19.4147 30.9574 19.4147 
139 1 20.8575 29.5145 17.9719 
140 1 22.3004 30.9574 19.4147 
141 1 23.7432 29.5145 17.9719 
142 1 25.186 30.9574 19.4147 
143 1 26.6289 29.5145 17.9719 
144 1 28.0717 30.9574 19.4147 
145 1 29.5145 29.5145 17.9719 
146 1 30.9574 30.9574 19.4147 
147 1 32.4002 29.5145 17.9719 
148 1 33.843 30.9574 19.4147 
149 1 35.2858 29.5145 17.9719 
150 1 36.7287 30.9574 19.4147 
151 1 38.1715 29.5145 17.9719 
152 1 39.6143 30.9574 19.4147 
153 1 41.0572 29.5145 17.9719 
154 1 42.5 30.9574 19.4147 
155 1 43.9428 29.5145 17.9719 
156 1 45.3857 30.9574 19.4147 
157 1 46.8285 29.5145 17.9719 
158 1 48.2713 30.9574 19.4147 
159 1 49.7142 29.5145 17.9719 
160 1 51.157 30.9574 19.4147 
161 1 52.5998 29.5145 17.9719 
162 1 54.0426 30.9574 19.4147 
163 1 55.4855 29.5145 17.9719 
164 1 56.9283 30.9574 19.4147 
165 1 58.3711 29.5145 17.9719 
166 1 59.814 30.9574 19.4147 
167 1 61.2568 29.5145 17.9719 
168 1 62.6996 30.9574 19.4147 
169 1 64.1425 29.5145 17.9719 
170 1 65.5853 30.9574 19.4147 
171 1 17.9719 32.4002 17.9719 
172 1 19.4147 33.843 19.4147 
173 1 20.8575 32.4002 17.9719 
174 1 22.3004 33.843 19.4147 
175 1 23.7432 32.4002 17.9719 
176 1 25.186 33.843 19.4147 
177 1 26.6289 32.4002 17.9719 
178 1 28.0717 33.843 19.4147 
179 1 29.5145 32.4002 17.9719 
180 1 30.9574 33.843 19.4147 
181 1 32.4002 32.4002 17.9719 
182 1 33.843 33.843 19.4147 
183 1 35.2858 32.4002 17.9719 
184 1 36.7287 33.843 19.4147 
185 1 38.1715 32.4002 17.9719 
186 1 39.6143 33.843 19.4147 
187 1 41.0572 32.4002 17.9719 
188 1 42.5 33.843 19.4147 
189 1 43.9428 32.4002 17.9719 
190 1 45.3857 33.843 19.4147 
191 1 46.8285 32.4002 17.9719 
192 1 48.2713 33.843 19.4147 
193 1 49.7142 32.4002 17.9719 
194 1 51.157 33.843 19.4147 
195 1 52.5998 32.4002 17.9719 
196 1 54.0426 33.843 19.4147 
197 1 55.4855 32.4002 17.9719 
198 1 56.9283 33.843 19.4147 
199 1 58.3711 32.4002 17.9719 
200 1 59.814 33.843 19.4147 
201 1 61.2568 32.4002 17.9719 
202 1 62.6996 33.843 19.4147 
203 1 64.1425 32.4002 17.9719 
204 1 65.5853 33.843 19.4147 
205 1 17.9719 35.2858 17.9719 
206 1 19.4147 36.7287 19.4147 
207 1 20.8575 35.2858 17.9719 
208 1 22.3004 36.7287 19.4147 
209 1 23.7432 35.2858 17.9719 
210 1 25.186 36.7287 19.4147 
211 1 26.6289 35.2858 17.9719 
212 1 28.0717 36.7287 19.4147 
213 1 29.5145 35.2858 17.9719 
214 1 30.9574 36.7287 19.4147 
215 1 32.4002 35.2858 17.9719 
216 1 33.843 36.7287 19.4147 
217 1 35.2858 35.2858 17.9719 
218 1 36.7287 36.7287 19.4147 
219 1 38.1715 35.2858 17.9719 
220 1 39.6143 36.7287 19.4147 
221 1 41.0572 35.2858 17.9719 
222 1 42.5 36.7287 19.4147 
223 1 43.9428 35.2858 17.9719 
224 1 45.3857 36.7287 19.4147 
225 1 46.8285 35.2858 17.9719 
226 1 48.2713 36.7287 19.4147 
227 1 49.7142 35.2858 17.9719 
228 1 51.157 36.7287 19.4147 
229 1 52.5998 35.2858 17.9719 
230 1 54.0426 36.7287 19.4147 
231 1 55.4855 35.2858 17.9719 
232 1 56.9283 36.7287 19.4147 
233 1 58.3711 35.2858 17.9719 
234 1 59.814 36.7287 19.4147 
235 1 61.2568 35.2858 17.9719 
236 1 62.6996 36.7287 19.4147 
237 1 64.1425 35.2858 17.9719 
238 1 65.5853 36.7287 19.4147 
239 1 17.9719 38.1715 17.9719 
240 1 19.4147 39.6143 19.4147 
241 1 20.8575 38.1715 17.9719 
242 1 22.3004 39.6143 19.4147 
243 1 23.7432 38.1715 17.9719 
244 1 25.186 39.6143 19.4147 
245 1 26.6289 38.1715 17.9719 
246 1 28.0717 39.6143 19.4147 
247 1 29.5145 38.1715 17.9719 
248 1 30.9574 39.6143 19.4147 
249 1 32.4002 38.1715 17.9719 
250 1 33.843 39.6143 19.4147 
251 1 35.2858 38.1715 17.9719 
252 1 36.7287 39.6143 19.4147 
253 1 38.1715 38.1715 17.9719 
254 1 39.6143 39.6143 19.4147 
255 1 41.0572 38.1715 17.9719 
256 1 42.5 39.6143 19.4147 
257 1 43.9428 38.1715 17.9719 
258 1 45.3857 39.6143 19.4147 
259 1 46.8285 38.1715 17.9719 
260 1 48.2713 39.6143 19.4147 
261 1 49.7142 38.1715 17.9719 
262 1 51.157 39.6143 19.4147 
263 1 52.5998 38.1715 17.9719 
264 1 54.0426 39.6143 19.4147 
265 1 55.4855 38.1715 17.9719 
266 1 56.9283 39.6143 19.4147 
267 1 58.3711 38.1715 17.9719 
268 1 59.814 39.6143 19.4147 
269 1 61.2568 38.1715 17.9719 
270 1 62.6996 39.6143 19.4147 
271 1 64.1425 38.1715 17.9719 
272 1 65.5853 39.6143 19.4147 
273 1 17.9719 41.0572 17.9719 
274 1 19.4147 42.5 19.4147 
275 1 20.8575 41.0572 17.9719 
276 1 22.3004 42.5 19.4147 
277 1 23.7432 41.0572 17.9719 
278 1 25.186 42.5 19.4147 
279 1 26.6289 41.0572 17.9719 
280 1 28.0717 42.5 19.4147 
281 1 29.5145 41.0572 17.9719 
282 1 30.9574 42.5 19.4147 
283 1 32.4002 41.0572 17.9719 
284 1 33.843 42.5 19.4147 
285 1 35.2858 41.0572 17.9719 
286 1 36.7287 42.5 19.4147 
287 1 38.1715 41.0572 17.9719 
288 1 39.6143 42.5 19.4147 
289 1 41.0572 41.0572 17.9719 
290 1 42.5 42.5 19.4147 
291 1 43.9428 41.0572 17.9719 
292 1 45.3857 42.5 19.4147 
293 1 46.8285 41.0572 17.9719 
294 1 48.2713 42.5 19.4147 
295 1 49.7142 41.0572 17.9719 
296 1 51.157 42.5 19.4147 
297 1 52.5998 41.0572 17.9719 
298 1 54.0426 42.5 19.4147 
299 1 55.4855 41.0572 17.9719 
300 1 56.9283 42.5 19.4147 
301 1 58.3711 41.0572 17.9719 
302 1 59.814 42.5 19.4147 
303 1 61.2568 41.0572 17.9719 
304 1 62.6996 42.5 19.4147 
305 1 64.1425 41.0572 17.9719 
306 1 65.5853 42.5 19.4147 
307 1 17.9719 43.9428 17.9719 
308 1 19.4147 45.3857 19.4147 
309 1 20.8575 43.9428 17.9719 
310 1 22.3004 45.3857 19.4147 
311 1 23.7432 43.9428 17.9719 
312 1 25.186 45.3857 19.4147 
313 1 26.6289 43.9428 17.9719 
314 1 28.0717 45.3857 19.4147 
315 1 29.5145 43.9428 17.9719 
316 1 30.9574 45.3857 19.4147 
317 1 32.4002 43.9428 17.9719 
318 1 33.843 45.3857 19.4147 
319 1 35.2858 43.9428 17.9719 
320 1 36.7287 45.3857 19.4147 
321 1 38.1715 43.9428 17.9719 
322 1 39.6143 45.3857 19.4147 
323 1 41.0572 43.9428 17.9719 
324 1 42.5 45.3857 19.4147 
325 1 43.9428 43.9428 17.9719 
326 1 45.3857 45.3857 19.4147 
327 1 46.8285 43.9428 17.9719 
328 1 48.2713 45.3857 19.4147 
329 1 49.7142 43.9428 17.9719 
330 1 51.157 45.3857 19.4147 
331 1 52.5998 43.9428 17.9719 
332 1 54.0426 45.3857 19.4147 
333 1 55.4855 43.9428 17.9719 
334 1 56.9283 45.3857 19.4147 
335 1 58.3711 43.9428 17.9719 
336 1 59.814 45.3857 19.4147 
337 1 61.2568 43.9428 17.9719 
338 1 62.6996 45.3857 19.4147 
339 1 64.1425 43.9428 17.9719 
340 1 65.5853 45.3857 19.4147 
341 1 17.9719 46.8285 17.9719 
342 1 19.4147 48.2713 19.4147 
343 1 20.8575 46.8285 17.9719 
344 1 22.3004 48.2713 19.4147 
345 1 23.7432 46.8285 17.9719 
346 1 25.186 48.2713 19.4147 
347 1 26.6289 46.8285 17.9719 
348 1 28.0717 48.2713 19.4147 
349 1 29.5145 46.8285 17.9719 
350 1 30.9574 48.2713 19.4147 
351 1 32.4002 46.8285 17.9719 
352 1 33.843 48.2713 19.4147 
353 1 35.2858 46.8285 17.9719 
354 1 36.7287 48.2713 19.4147 
355 1 38.1715 46.8285 17.9719 
356 1 39.6143 48.2713 19.4147 
357 1 41.0572 46.8285 17.9719 
358 1 42.5 48.2713 19.4147 
359 1 43.9428 46.8285 17.9719 
360 1 45.3857 48.2713 19.4147 
361 1 46.8285 46.8285 17.9719 
362 1 48.2713 48.2713 19.4147 
363 1 49.7142 46.8285 17.9719 
364 1 51.157 48.2713 19.4147 
365 1 52.5998 46.8285 17.9719 
366 1 54.0426 48.2713 19.4147 
367 1 55.4855 46.8285 17.9719 
368 1 56.9283 48.2713 19.4147 
369 1 58.3711 46.8285 17.9719 
370 1 59.814 48.2713 19.4147 
371 1 61.2568 46.8285 17.9719 
372 1 62.6996 48.2713 19.4147 
373 1 64.1425 46.8285 17.9719 
374 1 65.5853 48.2713 19.4147 
375 1 17.9719 49.7142 17.9719 
376 1 19.4147 51.157 19.4147 
377 1 20.8575 49.7142 17.9719 
378 1 22.3004 51.157 19.4147 
379 1 23.7432 49.7142 17.9719 
380 1 25.186 51.157 19.4147 
381 1 26.6289 49.7142 17.9719 
382 1 28.0717 51.157 19.4147 
383 1 29.5145 49.7142 17.9719 
384 1 30.9574 51.157 19.4147 
385 1 32.4002 49.7142 17.9719 
386 1 33.843 51.157 19.4147 
387 1 35.2858 49.7142 17.9719 
388 1 36.7287 51.157 19.4147 
389 1 38.1715 49.7142 17.9719 
390 1 39.6143 51.157 19.4147 
391 1 41.0572 49.7142 17.9719 
392 1 42.5 51.157 19.4147 
393 1 43.9428 49.7142 17.9719 
394 1 45.3857 51.157 19.4147 
395 1 46.8285 49.7142 17.9719 
396 1 48.2713 51.157 19.4147 
397 1 49.7142 49.7142 17.9719 
398 1 51.157 51.157 19.4147 
399 1 52.5998 49.7142 17.9719 
400 1 54.0426 51.157 19.4147 
401 1 55.4855 49.7142 17.9719 
402 1 56.9283 51.157 19.4147 
403 1 58.3711 49.7142 17.9719 
404 1 59.814 51.157 19.4147 
405 1 61.2568 49.7142 17.9719 
406 1 62.6996 51.157 19.4147 
407 1 64.1425 49.7142 17.9719 
408 1 65.5853 51.157 19.4147 
409 1 17.9719 52.5998 17.9719 
410 1 19.4147 54.0426 19.4147 
411 1 20.8575 52.5998 17.9719 
412 1 22.3004 54.0426 19.4147 
413 1 23.7432 52.5998 17.9719 
414 1 25.186 54.0426 19.4147 
415 1 26.6289 52.5998 17.9719 
416 1 28.0717 54.0426 19.4147 
417 1 29.5145 52.5998 17.9719 
418 1 30.9574 54.0426 19.4147 
419 1 32.4002 52.5998 17.9719 
420 1 33.843 54.0426 19.4147 
421 1 35.2858 52.5998 17.9719 
422 1 36.7287 54.0426 19.4147 
423 1 38.1715 52.5998 17.9719 
424 1 39.6143 54.0426 19.4147 
425 1 41.0572 52.5998 17.9719 
426 1 42.5 54.0426 19.4147 
427 1 43.9428 52.5998 17.9719 
428 1 45.3857 54.0426 19.4147 
429 1 46.8285 52.5998 17.9719 
430 1 48.2713 54.0426 19.4147 
431 1 49.7142 52.5998 17.9719 
432 1 51.157 54.0426 19.4147 
433 1 52.5998 52.5998 17.9719 
434 1 54.0426 54.0426 19.4147 
435 1 55.4855 52.5998 17.9719 
436 1 56.9283 54.0426 19.4147 
437 1 58.3711 52.5998 17.9719 
438 1 59.814 54.0426 19.4147 
439 1 61.2568 52.5998 17.9719 
440 1 62.6996 54.0426 19.4147 
441 1 64.1425 52.5998 17.9719 
442 1 65.5853 54.0426 19.4147 
443 1 17.9719 55.4855 17.9719 
444 1 19.4147 56.9283 19.4147 
445 1 20.8575 55.4855 17.9719 
446 1 22.3004 56.9283 19.4147 
447 1 23.7432 55.4855 17.9719 
448 1 25.186 56.9283 19.4147 
449 1 26.6289 55.4855 17.9719 
450 1 28.0717 56.9283 19.4147 
451 1 29.5145 55.4855 17.9719 
452 1 30.9574 56.9283 19.4147 
453 1 32.4002 55.4855 17.9719 
454 1 33.843 56.9283 19.4147 
455 1 35.2858 55.4855 17.9719 
456 1 36.7287 56.9283 19.4147 
457 1 38.1715 55.4855 17.9719 
458 1 39.6143 56.9283 19.4147 
459 1 41.0572 55.4855 17.9719 
460 1 42.5 56.9283 19.4147 
461 1 43.9428 55.4855 17.9719 
462 1 45.3857 56.9283 19.4147 
463 1 46.8285 55.4855 17.9719 
464 1 48.2713 56.9283 19.4147 
465 1 49.7142 55.4855 17.9719 
466 1 51.157 56.9283 19.4147 
467 1 52.5998 55.4855 17.9719 
468 1 54.0426 56.9283 19.4147 
469 1 55.4855 55.4855 17.9719 
470 1 56.9283 56.9283 19.4147 
471 1 58.3711 55.4855 17.9719 
472 1 59.814 56.9283 19.4147 
473 1 61.2568 55.4855 17.9719 
474 1 62.6996 56.9283 19.4147 
475 1 64.1425 55.4855 17.9719 
476 1 65.5853 56.9283 19.4147 
477 1 17.9719 58.3711 17.9719 
478 1 19.4147 59.814 19.4147 
479 1 20.8575 58.3711 17.9719 
480 1 22.3004 59.814 19.4147 
481 1 23.7432 58.3711 17.9719 
482 1 25.186 59.814 19.4147 
483 1 26.6289 58.3711 17.9719 
484 1 28.0717 59.814 19.4147 
485 1 29.5145 58.3711 17.9719 
486 1 30.9574 59.814 19.4147 
487 1 32.4002 58.3711 17.9719 
488 1 33.843 59.814 19.4147 
489 1 35.2858 58.3711 17.9719 
490 1 36.7287 59.814 19.4147 
491 1 38.1715 58.3711 17.9719 
492 1 39.6143 59.814 19.4147 
493 1 41.0572 58.3711 17.9719 
494 1 42.5 59.814 19.4147 
495 1 43.9428 58.3711 17.9719 
496 1 45.3857 59.814 19.4147 
497 1 46.8285 58.3711 17.9719 
498 1 48.2713 59.814 19.4147 
499 1 49.7142 58.3711 17.9719 
500 1 51.157 59.814 19.4147 
501 1 52.5998 58.3711 17.9719 
502 1 54.0426 59.814 19.4147 
503 1 55.4855 58.3711 17.9719 
504 1 56.9283 59.814 19.4147 
505 1 58.3711 58.3711 17.9719 
506 1 59.814 59.814 19.4147 
507 1 61.2568 58.3711 17.9719 
508 1 62.6996 59.814 19.4147 
509 1 64.1425 58.3711 17.9719 
510 1 65.5853 59.814 19.4147 
511 1 17.9719 61.2568 17.9719 
512 1 19.4147 62.6996 19.4147 
513 1 20.8575 61.2568 17.9719 
514 1 22.3004 62.6996 19.4147 
515 1 23.7432 61.2568 17.9719 
516 1 25.186 62.6996 19.4147 
517 1 26.6289 61.2568 17.9719 
518 1 28.0717 62.6996 19.4147 
519 1 29.5145 61.2568 17.9719 
520 1 30.9574 62.6996 19.4147 
521 1 32.4002 61.2568 17.9719 
522 1 33.843 62.6996 19.4147 
523 1 35.2858 61.2568 17.9719 
524 1 36.7287 62.6996 19.4147 
525 1 38.1715 61.2568 17.9719 
526 1 39.6143 62.6996 19.4147 
527 1 41.0572 61.2568 17.9719 
528 1 42.5 62.6996 19.4147 
529 1 43.9428 61.2568 17.9719 
530 1 45.3857 62.6996 19.4147 
531 1 46.8285 61.2568 17.9719 
532 1 48.2713 62.6996 19.4147 
533 1 49.7142 61.2568 17.9719 
534 1 51.157 62.6996 19.4147 
535 1 52.5998 61.2568 17.9719 
536 1 54.0426 62.6996 19.4147 
537 1 55.4855 61.2568 17.9719 
538 1 56.9283 62.6996 19.4147 
539 1 58.3711 61.2568 17.9719 
540 1 59.814 62.6996 19.4147 
541 1 61.2568 61.2568 17.9719 
542 1 62.6996 62.6996 19.4147 
543 1 64.1425 61.2568 17.9719 
544 1 65.5853 62.6996 19.4147 
545 1 17.9719 64.1425 17.9719 
546 1 19.4147 65.5853 19.4147 
547 1 20.8575 64.1425 17.9719 
548 1 22.3004 65.5853 19.4147 
549 1 23.7432 64.1425 17.9719 
550 1 25.186 65.5853 19.4147 
551 1 26.6289 64.1425 17.9719 
552 1 28.0717 65.5853 19.4147 
553 1 29.5145 64.1425 17.9719 
554 1 30.9574 65.5853 19.4147 
555 1 32.4002 64.1425 17.9719 
556 1 33.843 65.5853 19.4147 
557 1 35.2858 64.1425 17.9719 
558 1 36.7287 65.5853 19.4147 
559 1 38.1715 64.1425 17.9719 
560 1 39.6143 65.5853 19.4147 
561 1 41.0572 64.1425 17.9719 
562 1 42.5 65.5853 19.4147 
563 1 43.9428 64.1425 17.9719 
564 1 45.3857 65.5853 19.4147 
565 1 46.8285 64.1425 17.9719 
566 1 48.2713 65.5853 19.4147 
567 1 49.7142 64.1425 17.9719 
568 1 51.157 65.5853 19.4147 
569 1 52.5998 64.1425 17.9719 
570 1 54.0426 65.5853 19.4147 
571 1 55.4855 64.1425 17.9719 
572 1 56.9283 65.5853 19.4147 
573 1 58.3711 64.1425 17.9719 
574 1 59.814 65.5853 19.4147 
575 1 61.2568 64.1425 17.9719 
576 1 62.6996 65.5853 19.4147 
577 1 64.1425 64.1425 17.9719 
578 1 65.5853 65.5853 19.4147 
579 1 17.9719 17.9719 20.8575 
580 1 19.4147 19.4147 22.3004 
581 1 20.8575 17.9719 20.8575 
582 1 22.3004 19.4147 22.3004 
583 1 23.7432 17.9719 20.8575 
584 1 25.186 19.4147 22.3004 
585 1 26.6289 17.9719 20.8575 
586 1 28.0717 19.4147 22.3004 
587 1 29.5145 17.9719 20.8575 
588 1 30.9574 19.4147 22.3004 
589 1 32.4002 17.9719 20.8575 
590 1 33.843 19.4147 22.3004 
591 1 35.2858 17.9719 20.8575 
592 1 36.7287 19.4147 22.3004 
593 1 38.1715 17.9719 20.8575 
594 1 39.6143 19.4147 22.3004 
595 1 41.0572 17.9719 20.8575 
596 1 42.5 19.4147 22.3004 
597 1 43.9428 17.9719 20.8575 
598 1 45.3857 19.4147 22.3004 
599 1 46.8285 17.9719 20.8575 
600 1 48.2713 19.4147 22.3004 
601 1 49.7142 17.9719 20.8575 
602 1 51.157 19.4147 22.3004 
603 1 52.5998 17.9719 20.8575 
604 1 54.0426 19.4147 22.3004 
605 1 55.4855 17.9719 20.8575 
606 1 56.9283 19.4147 22.3004 
607 1 58.3711 17.9719 20.8575 
608 1 59.814 19.4147 22.3004 
609 1 61.2568 17.9719 20.8575 
610 1 62.6996 19.4147 22.3004 
611 1 64.1425 17.9719 20.8575 
612 1 65.5853 19.4147 22.3004 
613 1 17.9719 20.8575 20.8575 
614 1 19.4147 22.3004 22.3004 
615 1 20.8575 20.8575 20.8575 
616 1 22.3004 22.3004 22.3004 
617 1 23.7432 20.8575 20.8575 
618 1 25.186 22.3004 22.3004 
619 1 26.6289 20.8575 20.8575 
620 1 28.0717 22.3004 22.3004 
621 1 29.5145 20.8575 20.8575 
622 1 30.9574 22.3004 22.3004 
623 1 32.4002 20.8575 20.8575 
624 1 33.843 22.3004 22.3004 
625 1 35.2858 20.8575 20.8575 
626 1 36.7287 22.3004 22.3004 
627 1 38.1715 20.8575 20.8575 
628 1 39.6143 22.3004 22.3004 
629 1 41.0572 20.8575 20.8575 
630 1 42.5 22.3004 22.3004 
631 1 43.9428 20.8575 20.8575 
632 1 45.3857 22.3004 22.3004 
633 1 46.8285 20.8575 20.8575 
634 1 48.2713 22.3004 22.3004 
635 1 49.7142 20.8575 20.8575 
636 1 51.157 22.3004 22.3004 
637 1 52.5998 20.8575 20.8575 
638 1 54.0426 22.3004 22.3004 
639 1 55.4855 20.8575 20.8575 
640 1 56.9283 22.3004 22.3004 
641 1 58.3711 20.8575 20.8575 
642 1 59.814 22.3004 22.3004 
643 1 61.2568 20.8575 20.8575 
644 1 62.6996 22.3004 22.3004 
645 1 64.1425 20.8575 20.8575 
646 1 65.5853 22.3004 22.3004 
647 1 17.9719 23.7432 20.8575 
648 1 19.4147 25.186 22.3004 
649 1 20.8575 23.7432 20.8575 
650 1 22.3004 25.186 22.3004 
651 1 23.7432 23.7432 20.8575 
652 1 25.186 25.186 22.3004 
653 1 26.6289 23.7432 20.8575 
654 1 28.0717 25.186 22.3004 
655 1 29.5145 23.7432 20.8575 
656 1 30.9574 25.186 22.3004 
657 1 32.4002 23.7432 20.8575 
658 1 33.843 25.186 22.3004 
659 1 35.2858 23.7432 20.8575 
660 1 36.7287 25.186 22.3004 
661 1 38.1715 23.7432 20.8575 
662 1 39.6143 25.186 22.3004 
663 1 41.0572 23.7432 20.8575 
664 1 42.5 25.186 22.3004 
665 1 43.9428 23.7432 20.8575 
666 1 45.3857 25.186 22.3004 
667 1 46.8285 23.7432 20.8575 
668 1 48.2713 25.186 22.3004 
669 1 49.7142 23.7432 20.8575 
670 1 51.157 25.186 22.3004 
671 1 52.5998 23.7432 20.8575 
672 1 54.0426 25.186 22.3004 
673 1 55.4855 23.7432 20.8575 
674 1 56.9283 25.186 22.3004 
675 1 58.3711 23.7432 20.8575 
676 1 59.814 25.186 22.3004 
677 1 61.2568 23.7432 20.8575 
678 1 62.6996 25.186 22.3004 
679 1 64.1425 23.7432 20.8575 
680 1 65.5853 25.186 22.3004 
681 1 17.9719 26.6289 20.8575 
682 1 19.4147 28.0717 22.3004 
683 1 20.8575 26.6289 20.8575 
684 1 22.3004 28.0717 22.3004 
685 1 23.7432 26.6289 20.8575 
686 1 25.186 28.0717 22.3004 
687 1 26.6289 26.6289 20.8575 
688 1 28.0717 28.0717 22.3004 
689 1 29.5145 26.6289 20.8575 
690 1 30.9574 28.0717 22.3004 
691 1 32.4002 26.6289 20.8575 
692 1 33.843 28.0717 22.3004 
693 1 35.2858 26.6289 20.8575 
694 1 36.7287 28.0717 22.3004 
695 1 38.1715 26.6289 20.8575 
696 1 39.6143 28.0717 22.3004 
697 1 41.0572 26.6289 20.8575 
698 1 42.5 28.0717 22.3004 
699 1 43.9428 26.6289 20.8575 
700 1 45.3857 28.0717 22.3004 
701 1 46.8285 26.6289 20.8575 
702 1 48.2713 28.0717 22.3004 
703 1 49.7142 26.6289 20.8575 
704 1 51.157 28.0717 22.3004 
705 1 52.5998 26.6289 20.8575 
706 1 54.0426 28.0717 22.3004 
707 1 55.4855 26.6289 20.8575 
708 1 56.9283 28.0717 22.3004 
709 1 58.3711 26.6289 20.8575 
710 1 59.814 28.0717 22.3004 
711 1 61.2568 26.6289 20.8575 
712 1 62.6996 28.0717 22.3004 
713 1 64.1425 26.6289 20.8575 
714 1 65.5853 28.0717 22.3004 
715 1 17.9719 29.5145 20.8575 
716 1 19.4147 30.9574 22.3004 
717 1 20.8575 29.5145 20.8575 
718 1 22.3004 30.9574 22.3004 
719 1 23.7432 29.5145 20.8575 
720 1 25.186 30.9574 22.3004 
721 1 26.6289 29.5145 20.8575 
722 1 28.0717 30.9574 22.3004 
723 1 29.5145 29.5145 20.8575 
724 1 30.9574 30.9574 22.3004 
725 1 32.4002 29.5145 20.8575 
726 1 33.843 30.9574 22.3004 
727 1 35.2858 29.5145 20.8575 
728 1 36.7287 30.9574 22.3004 
729 1 38.1715 29.5145 20.8575 
730 1 39.6143 30.9574 22.3004 
731 1 41.0572 29.5145 20.8575 
732 1 42.5 30.9574 22.3004 
733 1 43.9428 29.5145 20.8575 
734 1 45.3857 30.9574 22.3004 
735 1 46.8285 29.5145 20.8575 
736 1 48.2713 30.9574 22.3004 
737 1 49.7142 29.5145 20.8575 
738 1 51.157 30.9574 22.3004 
739 1 52.5998 29.5145 20.8575 
740 1 54.0426 30.9574 22.3004 
741 1 55.4855 29.5145 20.8575 
742 1 56.9283 30.9574 22.3004 
743 1 58.3711 29.5145 20.8575 
744 1 59.814 30.9574 22.3004 
745 1 61.2568 29.5145 20.8575 
746 1 62.6996 30.9574 22.3004 
747 1 64.1425 29.5145 20.8575 
748 1 65.5853 30.9574 22.3004 
749 1 17.9719 32.4002 20.8575 
750 1 19.4147 33.843 22.3004 
751 1 20.8575 32.4002 20.8575 
752 1 22.3004 33.843 22.3004 
753 1 23.7432 32.4002 20.8575 
754 1 25.186 33.843 22.3004 
755 1 26.6289 32.4002 20.8575 
756 1 28.0717 33.843 22.3004 
757 1 29.5145 32.4002 20.8575 
758 1 30.9574 33.843 22.3004 
759 1 32.4002 32.4002 20.8575 
760 1 33.843 33.843 22.3004 
761 1 35.2858 32.4002 20.8575 
762 1 36.7287 33.843 22.3004 
763 1 38.1715 32.4002 20.8575 
764 1 39.6143 33.843 22.3004 
765 1 41.0572 32.4002 20.8575 
766 1 42.5 33.843 22.3004 
767 1 43.9428 32.4002 20.8575 
768 1 45.3857 33.843 22.3004 
769 1 46.8285 32.4002 20.8575 
770 1 48.2713 33.843 22.3004 
771 1 49.7142 32.4002 20.8575 
772 1 51.157 33.843 22.3004 
773 1 52.5998 32.4002 20.8575 
774 1 54.0426 33.843 22.3004 
775 1 55.4855 32.4002 20.8575 
776 1 56.9283 33.843 22.3004 
777 1 58.3711 32.4002 20.8575 
778 1 59.814 33.843 22.3004 
779 1 61.2568 32.4002 20.8575 
780 1 62.6996 33.843 22.3004 
781 1 64.1425 32.4002 20.8575 
782 1 65.5853 33.843 22.3004 
783 1 17.9719 35.2858 20.8575 
784 1 19.4147 36.7287 22.3004 
785 1 20.8575 35.2858 20.8575 
786 1 22.3004 36.7287 22.3004 
787 1 23.7432 35.2858 20.8575 
788 1 25.186 36.7287 22.3004 
789 1 26.6289 35.2858 20.8575 
790 1 28.0717 36.7287 22.3004 
791 1 29.5145 35.2858 20.8575 
792 1 30.9574 36.7287 22.3004 
793 1 32.4002 35.2858 20.8575 
794 1 33.843 36.7287 22.3004 
795 1 35.2858 35.2858 20.8575 
796 1 36.7287 36.7287 22.3004 
797 1 38.1715 35.2858 20.8575 
798 1 39.6143 36.7287 22.3004 
799 1 41.0572 35.2858 20.8575 
800 1 42.5 36.7287 22.3004 
801 1 43.9428 35.2858 20.8575 
802 1 45.3857 36.7287 22.3004 
803 1 46.8285 35.2858 20.8575 
804 1 48.2713 36.7287 22.3004 
805 1 49.7142 35.2858 20.8575 
806 1 51.157 36.7287 22.3004 
807 1 52.5998 35.2858 20.8575 
808 1 54.0426 36.7287 22.3004 
809 1 55.4855 35.2858 20.8575 
810 1 56.9283 36.7287 22.3004 
811 1 58.3711 35.2858 20.8575 
812 1 59.814 36.7287 22.3004 
813 1 61.2568 35.2858 20.8575 
814 1 62.6996 36.7287 22.3004 
815 1 64.1425 35.2858 20.8575 
816 1 65.5853 36.7287 22.3004 
817 1 17.9719 38.1715 20.8575 
818 1 19.4147 39.6143 22.3004 
819 1 20.8575 38.1715 20.8575 
820 1 22.3004 39.6143 22.3004 
821 1 23.7432 38.1715 20.8575 
822 1 25.186 39.6143 22.3004 
823 1 26.6289 38.1715 20.8575 
824 1 28.0717 39.6143 22.3004 
825 1 29.5145 38.1715 20.8575 
826 1 30.9574 39.6143 22.3004 
827 1 32.4002 38.1715 20.8575 
828 1 33.843 39.6143 22.3004 
829 1 35.2858 38.1715 20.8575 
830 1 36.7287 39.6143 22.3004 
831 1 38.1715 38.1715 20.8575 
832 1 39.6143 39.6143 22.3004 
833 1 41.0572 38.1715 20.8575 
834 1 42.5 39.6143 22.3004 
835 1 43.9428 38.1715 20.8575 
836 1 45.3857 39.6143 22.3004 
837 1 46.8285 38.1715 20.8575 
838 1 48.2713 39.6143 22.3004 
839 1 49.7142 38.1715 20.8575 
840 1 51.157 39.6143 22.3004 
841 1 52.5998 38.1715 20.8575 
842 1 54.0426 39.6143 22.3004 
843 1 55.4855 38.1715 20.8575 
844 1 56.9283 39.6143 22.3004 
845 1 58.3711 38.1715 20.8575 
846 1 59.814 39.6143 22.3004 
847 1 61.2568 38.1715 20.8575 
848 1 62.6996 39.6143 22.3004 
849 1 64.1425 38.1715 20.8575 
850 1 65.5853 39.6143 22.3004 
851 1 17.9719 41.0572 20.8575 
852 1 19.4147 42.5 22.3004 
853 1 20.8575 41.0572 20.8575 
854 1 22.3004 42.5 22.3004 
855 1 23.7432 41.0572 20.8575 
856 1 25.186 42.5 22.3004 
857 1 26.6289 41.0572 20.8575 
858 1 28.0717 42.5 22.3004 
859 1 29.5145 41.0572 20.8575 
860 1 30.9574 42.5 22.3004 
861 1 32.4002 41.0572 20.8575 
862 1 33.843 42.5 22.3004 
863 1 35.2858 41.0572 20.8575 
864 1 36.7287 42.5 22.3004 
865 1 38.1715 41.0572 20.8575 
866 1 39.6143 42.5 22.3004 
867 1 41.0572 41.0572 20.8575 
868 1 42.5 42.5 22.3004 
869 1 43.9428 41.0572 20.8575 
870 1 45.3857 42.5 22.3004 
871 1 46.8285 41.0572 20.8575 
872 1 48.2713 42.5 22.3004 
873 1 49.7142 41.0572 20.8575 
874 1 51.157 42.5 22.3004 
875 1 52.5998 41.0572 20.8575 
876 1 54.0426 42.5 22.3004 
877 1 55.4855 41.0572 20.8575 
878 1 56.9283 42.5 22.3004 
879 1 58.3711 41.0572 20.8575 
880 1 59.814 42.5 22.3004 
881 1 61.2568 41.0572 20.8575 
882 1 62.6996 42.5 22.3004 
883 1 64.1425 41.0572 20.8575 
884 1 65.5853 42.5 22.3004 
885 1 17.9719 43.9428 20.8575 
886 1 19.4147 45.3857 22.3004 
887 1 20.8575 43.9428 20.8575 
888 1 22.3004 45.3857 22.3004 
889 1 23.7432 43.9428 20.8575 
890 1 25.186 45.3857 22.3004 
891 1 26.6289 43.9428 20.8575 
892 1 28.0717 45.3857 22.3004 
893 1 29.5145 43.9428 20.8575 
894 1 30.9574 45.3857 22.3004 
895 1 32.4002 43.9428 20.8575 
896 1 33.843 45.3857 22.3004 
897 1 35.2858 43.9428 20.8575 
898 1 36.7287 45.3857 22.3004 
899 1 38.1715 43.9428 20.8575 
900 1 39.6143 45.3857 22.3004 
901 1 41.0572 43.9428 20.8575 
902 1 42.5 45.3857 22.3004 
903 1 43.9428 43.9428 20.8575 
904 1 45.3857 45.3857 22.3004 
905 1 46.8285 43.9428 20.8575 
906 1 48.2713 45.3857 22.3004 
907 1 49.7142 43.9428 20.8575 
908 1 51.157 45.3857 22.3004 
909 1 52.5998 43.9428 20.8575 
910 1 54.0426 45.3857 22.3004 
911 1 55.4855 43.9428 20.8575 
912 1 56.9283 45.3857 22.3004 
913 1 58.3711 43.9428 20.8575 
914 1 59.814 45.3857 22.3004 
915 1 61.2568 43.9428 20.8575 
916 1 62.6996 45.3857 22.3004 
917 1 64.1425 43.9428 20.8575 
918 1 65.5853 45.3857 22.3004 
919 1 17.9719 46.8285 20.8575 
920 1 19.4147 48.2713 22.3004 
921 1 20.8575 46.8285 20.8575 
922 1 22.3004 48.2713 22.3004 
923 1 23.7432 46.8285 20.8575 
924 1 25.186 48.2713 22.3004 
925 1 26.6289 46.8285 20.8575 
926 1 28.0717 48.2713 22.3004 
927 1 29.5145 46.8285 20.8575 
928 1 30.9574 48.2713 22.3004 
929 1 32.4002 46.8285 20.8575 
930 1 33.843 48.2713 22.3004 
931 1 35.2858 46.8285 20.8575 
932 1 36.7287 48.2713 22.3004 
933 1 38.1715 46.8285 20.8575 
934 1 39.6143 48.2713 22.3004 
935 1 41.0572 46.8285 20.8575 
936 1 42.5 48.2713 22.3004 
937 1 43.9428 46.8285 20.8575 
938 1 45.3857 48.2713 22.3004 
939 1 46.8285 46.8285 20.8575 
940 1 48.2713 48.2713 22.3004 
941 1 49.7142 46.8285 20.8575 
942 1 51.157 48.2713 22.3004 
943 1 52.5998 46.8285 20.8575 
944 1 54.0426 48.2713 22.3004 
945 1 55.4855 46.8285 20.8575 
946 1 56.9283 48.2713 22.3004 
947 1 58.3711 46.8285 20.8575 
948 1 59.814 48.2713 22.3004 
949 1 61.2568 46.8285 20.8575 
950 1 62.6996 48.2713 22.3004 
951 1 64.1425 46.8285 20.8575 
952 1 65.5853 48.2713 22.3004 
953 1 17.9719 49.7142 20.8575 
954 1 19.4147 51.157 22.3004 
955 1 20.8575 49.7142 20.8575 
956 1 22.3004 51.157 22.3004 
957 1 23.7432 49.7142 20.8575 
958 1 25.186 51.157 22.3004 
959 1 26.6289 49.7142 20.8575 
960 1 28.0717 51.157 22.3004 
961 1 29.5145 49.7142 20.8575 
962 1 30.9574 51.157 22.3004 
963 1 32.4002 49.7142 20.8575 
964 1 33.843 51.157 22.3004 
965 1 35.2858 49.7142 20.8575 
966 1 36.7287 51.157 22.3004 
967 1 38.1715 49.7142 20.8575 
968 1 39.6143 51.157 22.3004 
969 1 41.0572 49.7142 20.8575 
970 1 42.5 51.157 22.3004 
971 1 43.9428 49.7142 20.8575 
972 1 45.3857 51.157 22.3004 
973 1 46.8285 49.7142 20.8575 
974 1 48.2713 51.157 22.3004 
975 1 49.7142 49.7142 20.8575 
976 1 51.157 51.157 22.3004 
977 1 52.5998 49.7142 20.8575 