ITEM: TIMESTEP
59
ITEM: NUMBER OF ATOMS
19652
ITEM: BOX BOUNDS pp pp pp
1.1924743000718422e+01 7.3075256999281279e+01
1.1924743000718422e+01 7.3075256999281279e+01
1.1924743000718422e+01 7.3075256999281279e+01
ITEM: ATOMS id type xu yu zu 
1 2 11.9247 11.9247 11.9247 
2 2 13.7233 13.7233 11.9247 
3 2 13.7233 11.9247 13.7233 
4 2 11.9247 13.7233 13.7233 
5 2 15.5218 11.9247 11.9247 
6 2 17.3204 13.7233 11.9247 
7 2 17.3204 11.9247 13.7233 
8 2 15.5218 13.7233 13.7233 
9 2 19.1189 11.9247 11.9247 
10 2 20.9175 13.7233 11.9247 
11 2 20.9175 11.9247 13.7233 
12 2 19.1189 13.7233 13.7233 
13 2 22.716 11.9247 11.9247 
14 2 24.5146 13.7233 11.9247 
15 2 24.5146 11.9247 13.7233 
16 2 22.716 13.7233 13.7233 
17 2 26.3131 11.9247 11.9247 
18 2 28.1116 13.7233 11.9247 
19 2 28.1116 11.9247 13.7233 
20 2 26.3131 13.7233 13.7233 
21 2 29.9102 11.9247 11.9247 
22 2 31.7087 13.7233 11.9247 
23 2 31.7087 11.9247 13.7233 
24 2 29.9102 13.7233 13.7233 
25 2 33.5073 11.9247 11.9247 
26 2 35.3058 13.7233 11.9247 
27 2 35.3058 11.9247 13.7233 
28 2 33.5073 13.7233 13.7233 
29 2 37.1044 11.9247 11.9247 
30 2 38.9029 13.7233 11.9247 
31 2 38.9029 11.9247 13.7233 
32 2 37.1044 13.7233 13.7233 
33 2 40.7015 11.9247 11.9247 
34 2 42.5 13.7233 11.9247 
35 2 42.5 11.9247 13.7233 
36 2 40.7015 13.7233 13.7233 
37 2 44.2985 11.9247 11.9247 
38 2 46.0971 13.7233 11.9247 
39 2 46.0971 11.9247 13.7233 
40 2 44.2985 13.7233 13.7233 
41 2 47.8956 11.9247 11.9247 
42 2 49.6942 13.7233 11.9247 
43 2 49.6942 11.9247 13.7233 
44 2 47.8956 13.7233 13.7233 
45 2 51.4927 11.9247 11.9247 
46 2 53.2913 13.7233 11.9247 
47 2 53.2913 11.9247 13.7233 
48 2 51.4927 13.7233 13.7233 
49 2 55.0898 11.9247 11.9247 
50 2 56.8884 13.7233 11.9247 
51 2 56.8884 11.9247 13.7233 
52 2 55.0898 13.7233 13.7233 
53 2 58.6869 11.9247 11.9247 
54 2 60.4854 13.7233 11.9247 
55 2 60.4854 11.9247 13.7233 
56 2 58.6869 13.7233 13.7233 
57 2 62.284 11.9247 11.9247 
58 2 64.0825 13.7233 11.9247 
59 2 64.0825 11.9247 13.7233 
60 2 62.284 13.7233 13.7233 
61 2 65.8811 11.9247 11.9247 
62 2 67.6796 13.7233 11.9247 
63 2 67.6796 11.9247 13.7233 
64 2 65.8811 13.7233 13.7233 
65 2 69.4782 11.9247 11.9247 
66 2 71.2767 13.7233 11.9247 
67 2 71.2767 11.9247 13.7233 
68 2 69.4782 13.7233 13.7233 
69 2 11.9247 15.5218 11.9247 
70 2 13.7233 17.3204 11.9247 
71 2 13.7233 15.5218 13.7233 
72 2 11.9247 17.3204 13.7233 
73 2 15.5218 15.5218 11.9247 
74 2 17.3204 17.3204 11.9247 
75 2 17.3204 15.5218 13.7233 
76 2 15.5218 17.3204 13.7233 
77 2 19.1189 15.5218 11.9247 
78 2 20.9175 17.3204 11.9247 
79 2 20.9175 15.5218 13.7233 
80 2 19.1189 17.3204 13.7233 
81 2 22.716 15.5218 11.9247 
82 2 24.5146 17.3204 11.9247 
83 2 24.5146 15.5218 13.7233 
84 2 22.716 17.3204 13.7233 
85 2 26.3131 15.5218 11.9247 
86 2 28.1116 17.3204 11.9247 
87 2 28.1116 15.5218 13.7233 
88 2 26.3131 17.3204 13.7233 
89 2 29.9102 15.5218 11.9247 
90 2 31.7087 17.3204 11.9247 
91 2 31.7087 15.5218 13.7233 
92 2 29.9102 17.3204 13.7233 
93 2 33.5073 15.5218 11.9247 
94 2 35.3058 17.3204 11.9247 
95 2 35.3058 15.5218 13.7233 
96 2 33.5073 17.3204 13.7233 
97 2 37.1044 15.5218 11.9247 
98 2 38.9029 17.3204 11.9247 
99 2 38.9029 15.5218 13.7233 
100 2 37.1044 17.3204 13.7233 
101 2 40.7015 15.5218 11.9247 
102 2 42.5 17.3204 11.9247 
103 2 42.5 15.5218 13.7233 
104 2 40.7015 17.3204 13.7233 
105 2 44.2985 15.5218 11.9247 
106 2 46.0971 17.3204 11.9247 
107 2 46.0971 15.5218 13.7233 
108 2 44.2985 17.3204 13.7233 
109 2 47.8956 15.5218 11.9247 
110 2 49.6942 17.3204 11.9247 
111 2 49.6942 15.5218 13.7233 
112 2 47.8956 17.3204 13.7233 
113 2 51.4927 15.5218 11.9247 
114 2 53.2913 17.3204 11.9247 
115 2 53.2913 15.5218 13.7233 
116 2 51.4927 17.3204 13.7233 
117 2 55.0898 15.5218 11.9247 
118 2 56.8884 17.3204 11.9247 
119 2 56.8884 15.5218 13.7233 
120 2 55.0898 17.3204 13.7233 
121 2 58.6869 15.5218 11.9247 
122 2 60.4854 17.3204 11.9247 
123 2 60.4854 15.5218 13.7233 
124 2 58.6869 17.3204 13.7233 
125 2 62.284 15.5218 11.9247 
126 2 64.0825 17.3204 11.9247 
127 2 64.0825 15.5218 13.7233 
128 2 62.284 17.3204 13.7233 
129 2 65.8811 15.5218 11.9247 
130 2 67.6796 17.3204 11.9247 
131 2 67.6796 15.5218 13.7233 
132 2 65.8811 17.3204 13.7233 
133 2 69.4782 15.5218 11.9247 
134 2 71.2767 17.3204 11.9247 
135 2 71.2767 15.5218 13.7233 
136 2 69.4782 17.3204 13.7233 
137 2 11.9247 19.1189 11.9247 
138 2 13.7233 20.9175 11.9247 
139 2 13.7233 19.1189 13.7233 
140 2 11.9247 20.9175 13.7233 
141 2 15.5218 19.1189 11.9247 
142 2 17.3204 20.9175 11.9247 
143 2 17.3204 19.1189 13.7233 
144 2 15.5218 20.9175 13.7233 
145 2 19.1189 19.1189 11.9247 
146 2 20.9175 20.9175 11.9247 
147 2 20.9175 19.1189 13.7233 
148 2 19.1189 20.9175 13.7233 
149 2 22.716 19.1189 11.9247 
150 2 24.5146 20.9175 11.9247 
151 2 24.5146 19.1189 13.7233 
152 2 22.716 20.9175 13.7233 
153 2 26.3131 19.1189 11.9247 
154 2 28.1116 20.9175 11.9247 
155 2 28.1116 19.1189 13.7233 
156 2 26.3131 20.9175 13.7233 
157 2 29.9102 19.1189 11.9247 
158 2 31.7087 20.9175 11.9247 
159 2 31.7087 19.1189 13.7233 
160 2 29.9102 20.9175 13.7233 
161 2 33.5073 19.1189 11.9247 
162 2 35.3058 20.9175 11.9247 
163 2 35.3058 19.1189 13.7233 
164 2 33.5073 20.9175 13.7233 
165 2 37.1044 19.1189 11.9247 
166 2 38.9029 20.9175 11.9247 
167 2 38.9029 19.1189 13.7233 
168 2 37.1044 20.9175 13.7233 
169 2 40.7015 19.1189 11.9247 
170 2 42.5 20.9175 11.9247 
171 2 42.5 19.1189 13.7233 
172 2 40.7015 20.9175 13.7233 
173 2 44.2985 19.1189 11.9247 
174 2 46.0971 20.9175 11.9247 
175 2 46.0971 19.1189 13.7233 
176 2 44.2985 20.9175 13.7233 
177 2 47.8956 19.1189 11.9247 
178 2 49.6942 20.9175 11.9247 
179 2 49.6942 19.1189 13.7233 
180 2 47.8956 20.9175 13.7233 
181 2 51.4927 19.1189 11.9247 
182 2 53.2913 20.9175 11.9247 
183 2 53.2913 19.1189 13.7233 
184 2 51.4927 20.9175 13.7233 
185 2 55.0898 19.1189 11.9247 
186 2 56.8884 20.9175 11.9247 
187 2 56.8884 19.1189 13.7233 
188 2 55.0898 20.9175 13.7233 
189 2 58.6869 19.1189 11.9247 
190 2 60.4854 20.9175 11.9247 
191 2 60.4854 19.1189 13.7233 
192 2 58.6869 20.9175 13.7233 
193 2 62.284 19.1189 11.9247 
194 2 64.0825 20.9175 11.9247 
195 2 64.0825 19.1189 13.7233 
196 2 62.284 20.9175 13.7233 
197 2 65.8811 19.1189 11.9247 
198 2 67.6796 20.9175 11.9247 
199 2 67.6796 19.1189 13.7233 
200 2 65.8811 20.9175 13.7233 
201 2 69.4782 19.1189 11.9247 
202 2 71.2767 20.9175 11.9247 
203 2 71.2767 19.1189 13.7233 
204 2 69.4782 20.9175 13.7233 
205 2 11.9247 22.716 11.9247 
206 2 13.7233 24.5146 11.9247 
207 2 13.7233 22.716 13.7233 
208 2 11.9247 24.5146 13.7233 
209 2 15.5218 22.716 11.9247 
210 2 17.3204 24.5146 11.9247 
211 2 17.3204 22.716 13.7233 
212 2 15.5218 24.5146 13.7233 
213 2 19.1189 22.716 11.9247 
214 2 20.9175 24.5146 11.9247 
215 2 20.9175 22.716 13.7233 
216 2 19.1189 24.5146 13.7233 
217 2 22.716 22.716 11.9247 
218 2 24.5146 24.5146 11.9247 
219 2 24.5146 22.716 13.7233 
220 2 22.716 24.5146 13.7233 
221 2 26.3131 22.716 11.9247 
222 2 28.1116 24.5146 11.9247 
223 2 28.1116 22.716 13.7233 
224 2 26.3131 24.5146 13.7233 
225 2 29.9102 22.716 11.9247 
226 2 31.7087 24.5146 11.9247 
227 2 31.7087 22.716 13.7233 
228 2 29.9102 24.5146 13.7233 
229 2 33.5073 22.716 11.9247 
230 2 35.3058 24.5146 11.9247 
231 2 35.3058 22.716 13.7233 
232 2 33.5073 24.5146 13.7233 
233 2 37.1044 22.716 11.9247 
234 2 38.9029 24.5146 11.9247 
235 2 38.9029 22.716 13.7233 
236 2 37.1044 24.5146 13.7233 
237 2 40.7015 22.716 11.9247 
238 2 42.5 24.5146 11.9247 
239 2 42.5 22.716 13.7233 
240 2 40.7015 24.5146 13.7233 
241 2 44.2985 22.716 11.9247 
242 2 46.0971 24.5146 11.9247 
243 2 46.0971 22.716 13.7233 
244 2 44.2985 24.5146 13.7233 
245 2 47.8956 22.716 11.9247 
246 2 49.6942 24.5146 11.9247 
247 2 49.6942 22.716 13.7233 
248 2 47.8956 24.5146 13.7233 
249 2 51.4927 22.716 11.9247 
250 2 53.2913 24.5146 11.9247 
251 2 53.2913 22.716 13.7233 
252 2 51.4927 24.5146 13.7233 
253 2 55.0898 22.716 11.9247 
254 2 56.8884 24.5146 11.9247 
255 2 56.8884 22.716 13.7233 
256 2 55.0898 24.5146 13.7233 
257 2 58.6869 22.716 11.9247 
258 2 60.4854 24.5146 11.9247 
259 2 60.4854 22.716 13.7233 
260 2 58.6869 24.5146 13.7233 
261 2 62.284 22.716 11.9247 
262 2 64.0825 24.5146 11.9247 
263 2 64.0825 22.716 13.7233 
264 2 62.284 24.5146 13.7233 
265 2 65.8811 22.716 11.9247 
266 2 67.6796 24.5146 11.9247 
267 2 67.6796 22.716 13.7233 
268 2 65.8811 24.5146 13.7233 
269 2 69.4782 22.716 11.9247 
270 2 71.2767 24.5146 11.9247 
271 2 71.2767 22.716 13.7233 
272 2 69.4782 24.5146 13.7233 
273 2 11.9247 26.3131 11.9247 
274 2 13.7233 28.1116 11.9247 
275 2 13.7233 26.3131 13.7233 
276 2 11.9247 28.1116 13.7233 
277 2 15.5218 26.3131 11.9247 
278 2 17.3204 28.1116 11.9247 
279 2 17.3204 26.3131 13.7233 
280 2 15.5218 28.1116 13.7233 
281 2 19.1189 26.3131 11.9247 
282 2 20.9175 28.1116 11.9247 
283 2 20.9175 26.3131 13.7233 
284 2 19.1189 28.1116 13.7233 
285 2 22.716 26.3131 11.9247 
286 2 24.5146 28.1116 11.9247 
287 2 24.5146 26.3131 13.7233 
288 2 22.716 28.1116 13.7233 
289 2 26.3131 26.3131 11.9247 
290 2 28.1116 28.1116 11.9247 
291 2 28.1116 26.3131 13.7233 
292 2 26.3131 28.1116 13.7233 
293 2 29.9102 26.3131 11.9247 
294 2 31.7087 28.1116 11.9247 
295 2 31.7087 26.3131 13.7233 
296 2 29.9102 28.1116 13.7233 
297 2 33.5073 26.3131 11.9247 
298 2 35.3058 28.1116 11.9247 
299 2 35.3058 26.3131 13.7233 
300 2 33.5073 28.1116 13.7233 
301 2 37.1044 26.3131 11.9247 
302 2 38.9029 28.1116 11.9247 
303 2 38.9029 26.3131 13.7233 
304 2 37.1044 28.1116 13.7233 
305 2 40.7015 26.3131 11.9247 
306 2 42.5 28.1116 11.9247 
307 2 42.5 26.3131 13.7233 
308 2 40.7015 28.1116 13.7233 
309 2 44.2985 26.3131 11.9247 
310 2 46.0971 28.1116 11.9247 
311 2 46.0971 26.3131 13.7233 
312 2 44.2985 28.1116 13.7233 
313 2 47.8956 26.3131 11.9247 
314 2 49.6942 28.1116 11.9247 
315 2 49.6942 26.3131 13.7233 
316 2 47.8956 28.1116 13.7233 
317 2 51.4927 26.3131 11.9247 
318 2 53.2913 28.1116 11.9247 
319 2 53.2913 26.3131 13.7233 
320 2 51.4927 28.1116 13.7233 
321 2 55.0898 26.3131 11.9247 
322 2 56.8884 28.1116 11.9247 
323 2 56.8884 26.3131 13.7233 
324 2 55.0898 28.1116 13.7233 
325 2 58.6869 26.3131 11.9247 
326 2 60.4854 28.1116 11.9247 
327 2 60.4854 26.3131 13.7233 
328 2 58.6869 28.1116 13.7233 
329 2 62.284 26.3131 11.9247 
330 2 64.0825 28.1116 11.9247 
331 2 64.0825 26.3131 13.7233 
332 2 62.284 28.1116 13.7233 
333 2 65.8811 26.3131 11.9247 
334 2 67.6796 28.1116 11.9247 
335 2 67.6796 26.3131 13.7233 
336 2 65.8811 28.1116 13.7233 
337 2 69.4782 26.3131 11.9247 
338 2 71.2767 28.1116 11.9247 
339 2 71.2767 26.3131 13.7233 
340 2 69.4782 28.1116 13.7233 
341 2 11.9247 29.9102 11.9247 
342 2 13.7233 31.7087 11.9247 
343 2 13.7233 29.9102 13.7233 
344 2 11.9247 31.7087 13.7233 
345 2 15.5218 29.9102 11.9247 
346 2 17.3204 31.7087 11.9247 
347 2 17.3204 29.9102 13.7233 
348 2 15.5218 31.7087 13.7233 
349 2 19.1189 29.9102 11.9247 
350 2 20.9175 31.7087 11.9247 
351 2 20.9175 29.9102 13.7233 
352 2 19.1189 31.7087 13.7233 
353 2 22.716 29.9102 11.9247 
354 2 24.5146 31.7087 11.9247 
355 2 24.5146 29.9102 13.7233 
356 2 22.716 31.7087 13.7233 
357 2 26.3131 29.9102 11.9247 
358 2 28.1116 31.7087 11.9247 
359 2 28.1116 29.9102 13.7233 
360 2 26.3131 31.7087 13.7233 
361 2 29.9102 29.9102 11.9247 
362 2 31.7087 31.7087 11.9247 
363 2 31.7087 29.9102 13.7233 
364 2 29.9102 31.7087 13.7233 
365 2 33.5073 29.9102 11.9247 
366 2 35.3058 31.7087 11.9247 
367 2 35.3058 29.9102 13.7233 
368 2 33.5073 31.7087 13.7233 
369 2 37.1044 29.9102 11.9247 
370 2 38.9029 31.7087 11.9247 
371 2 38.9029 29.9102 13.7233 
372 2 37.1044 31.7087 13.7233 
373 2 40.7015 29.9102 11.9247 
374 2 42.5 31.7087 11.9247 
375 2 42.5 29.9102 13.7233 
376 2 40.7015 31.7087 13.7233 
377 2 44.2985 29.9102 11.9247 
378 2 46.0971 31.7087 11.9247 
379 2 46.0971 29.9102 13.7233 
380 2 44.2985 31.7087 13.7233 
381 2 47.8956 29.9102 11.9247 
382 2 49.6942 31.7087 11.9247 
383 2 49.6942 29.9102 13.7233 
384 2 47.8956 31.7087 13.7233 
385 2 51.4927 29.9102 11.9247 
386 2 53.2913 31.7087 11.9247 
387 2 53.2913 29.9102 13.7233 
388 2 51.4927 31.7087 13.7233 
389 2 55.0898 29.9102 11.9247 
390 2 56.8884 31.7087 11.9247 
391 2 56.8884 29.9102 13.7233 
392 2 55.0898 31.7087 13.7233 
393 2 58.6869 29.9102 11.9247 
394 2 60.4854 31.7087 11.9247 
395 2 60.4854 29.9102 13.7233 
396 2 58.6869 31.7087 13.7233 
397 2 62.284 29.9102 11.9247 
398 2 64.0825 31.7087 11.9247 
399 2 64.0825 29.9102 13.7233 
400 2 62.284 31.7087 13.7233 
401 2 65.8811 29.9102 11.9247 
402 2 67.6796 31.7087 11.9247 
403 2 67.6796 29.9102 13.7233 
404 2 65.8811 31.7087 13.7233 
405 2 69.4782 29.9102 11.9247 
406 2 71.2767 31.7087 11.9247 
407 2 71.2767 29.9102 13.7233 
408 2 69.4782 31.7087 13.7233 
409 2 11.9247 33.5073 11.9247 
410 2 13.7233 35.3058 11.9247 
411 2 13.7233 33.5073 13.7233 
412 2 11.9247 35.3058 13.7233 
413 2 15.5218 33.5073 11.9247 
414 2 17.3204 35.3058 11.9247 
415 2 17.3204 33.5073 13.7233 
416 2 15.5218 35.3058 13.7233 
417 2 19.1189 33.5073 11.9247 
418 2 20.9175 35.3058 11.9247 
419 2 20.9175 33.5073 13.7233 
420 2 19.1189 35.3058 13.7233 
421 2 22.716 33.5073 11.9247 
422 2 24.5146 35.3058 11.9247 
423 2 24.5146 33.5073 13.7233 
424 2 22.716 35.3058 13.7233 
425 2 26.3131 33.5073 11.9247 
426 2 28.1116 35.3058 11.9247 
427 2 28.1116 33.5073 13.7233 
428 2 26.3131 35.3058 13.7233 
429 2 29.9102 33.5073 11.9247 
430 2 31.7087 35.3058 11.9247 
431 2 31.7087 33.5073 13.7233 
432 2 29.9102 35.3058 13.7233 
433 2 33.5073 33.5073 11.9247 
434 2 35.3058 35.3058 11.9247 
435 2 35.3058 33.5073 13.7233 
436 2 33.5073 35.3058 13.7233 
437 2 37.1044 33.5073 11.9247 
438 2 38.9029 35.3058 11.9247 
439 2 38.9029 33.5073 13.7233 
440 2 37.1044 35.3058 13.7233 
441 2 40.7015 33.5073 11.9247 
442 2 42.5 35.3058 11.9247 
443 2 42.5 33.5073 13.7233 
444 2 40.7015 35.3058 13.7233 
445 2 44.2985 33.5073 11.9247 
446 2 46.0971 35.3058 11.9247 
447 2 46.0971 33.5073 13.7233 
448 2 44.2985 35.3058 13.7233 
449 2 47.8956 33.5073 11.9247 
450 2 49.6942 35.3058 11.9247 
451 2 49.6942 33.5073 13.7233 
452 2 47.8956 35.3058 13.7233 
453 2 51.4927 33.5073 11.9247 
454 2 53.2913 35.3058 11.9247 
455 2 53.2913 33.5073 13.7233 
456 2 51.4927 35.3058 13.7233 
457 2 55.0898 33.5073 11.9247 
458 2 56.8884 35.3058 11.9247 
459 2 56.8884 33.5073 13.7233 
460 2 55.0898 35.3058 13.7233 
461 2 58.6869 33.5073 11.9247 
462 2 60.4854 35.3058 11.9247 
463 2 60.4854 33.5073 13.7233 
464 2 58.6869 35.3058 13.7233 
465 2 62.284 33.5073 11.9247 
466 2 64.0825 35.3058 11.9247 
467 2 64.0825 33.5073 13.7233 
468 2 62.284 35.3058 13.7233 
469 2 65.8811 33.5073 11.9247 
470 2 67.6796 35.3058 11.9247 
471 2 67.6796 33.5073 13.7233 
472 2 65.8811 35.3058 13.7233 
473 2 69.4782 33.5073 11.9247 
474 2 71.2767 35.3058 11.9247 
475 2 71.2767 33.5073 13.7233 
476 2 69.4782 35.3058 13.7233 
477 2 11.9247 37.1044 11.9247 
478 2 13.7233 38.9029 11.9247 
479 2 13.7233 37.1044 13.7233 
480 2 11.9247 38.9029 13.7233 
481 2 15.5218 37.1044 11.9247 
482 2 17.3204 38.9029 11.9247 
483 2 17.3204 37.1044 13.7233 
484 2 15.5218 38.9029 13.7233 
485 2 19.1189 37.1044 11.9247 
486 2 20.9175 38.9029 11.9247 
487 2 20.9175 37.1044 13.7233 
488 2 19.1189 38.9029 13.7233 
489 2 22.716 37.1044 11.9247 
490 2 24.5146 38.9029 11.9247 
491 2 24.5146 37.1044 13.7233 
492 2 22.716 38.9029 13.7233 
493 2 26.3131 37.1044 11.9247 
494 2 28.1116 38.9029 11.9247 
495 2 28.1116 37.1044 13.7233 
496 2 26.3131 38.9029 13.7233 
497 2 29.9102 37.1044 11.9247 
498 2 31.7087 38.9029 11.9247 
499 2 31.7087 37.1044 13.7233 
500 2 29.9102 38.9029 13.7233 
501 2 33.5073 37.1044 11.9247 
502 2 35.3058 38.9029 11.9247 
503 2 35.3058 37.1044 13.7233 
504 2 33.5073 38.9029 13.7233 
505 2 37.1044 37.1044 11.9247 
506 2 38.9029 38.9029 11.9247 
507 2 38.9029 37.1044 13.7233 
508 2 37.1044 38.9029 13.7233 
509 2 40.7015 37.1044 11.9247 
510 2 42.5 38.9029 11.9247 
511 2 42.5 37.1044 13.7233 
512 2 40.7015 38.9029 13.7233 
513 2 44.2985 37.1044 11.9247 
514 2 46.0971 38.9029 11.9247 
515 2 46.0971 37.1044 13.7233 
516 2 44.2985 38.9029 13.7233 
517 2 47.8956 37.1044 11.9247 
518 2 49.6942 38.9029 11.9247 
519 2 49.6942 37.1044 13.7233 
520 2 47.8956 38.9029 13.7233 
521 2 51.4927 37.1044 11.9247 
522 2 53.2913 38.9029 11.9247 
523 2 53.2913 37.1044 13.7233 
524 2 51.4927 38.9029 13.7233 
525 2 55.0898 37.1044 11.9247 
526 2 56.8884 38.9029 11.9247 
527 2 56.8884 37.1044 13.7233 
528 2 55.0898 38.9029 13.7233 
529 2 58.6869 37.1044 11.9247 
530 2 60.4854 38.9029 11.9247 
531 2 60.4854 37.1044 13.7233 
532 2 58.6869 38.9029 13.7233 
533 2 62.284 37.1044 11.9247 
534 2 64.0825 38.9029 11.9247 
535 2 64.0825 37.1044 13.7233 
536 2 62.284 38.9029 13.7233 
537 2 65.8811 37.1044 11.9247 
538 2 67.6796 38.9029 11.9247 
539 2 67.6796 37.1044 13.7233 
540 2 65.8811 38.9029 13.7233 
541 2 69.4782 37.1044 11.9247 
542 2 71.2767 38.9029 11.9247 
543 2 71.2767 37.1044 13.7233 
544 2 69.4782 38.9029 13.7233 
545 2 11.9247 40.7015 11.9247 
546 2 13.7233 42.5 11.9247 
547 2 13.7233 40.7015 13.7233 
548 2 11.9247 42.5 13.7233 
549 2 15.5218 40.7015 11.9247 
550 2 17.3204 42.5 11.9247 
551 2 17.3204 40.7015 13.7233 
552 2 15.5218 42.5 13.7233 
553 2 19.1189 40.7015 11.9247 
554 2 20.9175 42.5 11.9247 
555 2 20.9175 40.7015 13.7233 
556 2 19.1189 42.5 13.7233 
557 2 22.716 40.7015 11.9247 
558 2 24.5146 42.5 11.9247 
559 2 24.5146 40.7015 13.7233 
560 2 22.716 42.5 13.7233 
561 2 26.3131 40.7015 11.9247 
562 2 28.1116 42.5 11.9247 
563 2 28.1116 40.7015 13.7233 
564 2 26.3131 42.5 13.7233 
565 2 29.9102 40.7015 11.9247 
566 2 31.7087 42.5 11.9247 
567 2 31.7087 40.7015 13.7233 
568 2 29.9102 42.5 13.7233 
569 2 33.5073 40.7015 11.9247 
570 2 35.3058 42.5 11.9247 
571 2 35.3058 40.7015 13.7233 
572 2 33.5073 42.5 13.7233 
573 2 37.1044 40.7015 11.9247 
574 2 38.9029 42.5 11.9247 
575 2 38.9029 40.7015 13.7233 
576 2 37.1044 42.5 13.7233 
577 2 40.7015 40.7015 11.9247 
578 2 42.5 42.5 11.9247 
579 2 42.5 40.7015 13.7233 
580 2 40.7015 42.5 13.7233 
581 2 44.2985 40.7015 11.9247 
582 2 46.0971 42.5 11.9247 
583 2 46.0971 40.7015 13.7233 
584 2 44.2985 42.5 13.7233 
585 2 47.8956 40.7015 11.9247 
586 2 49.6942 42.5 11.9247 
587 2 49.6942 40.7015 13.7233 
588 2 47.8956 42.5 13.7233 
589 2 51.4927 40.7015 11.9247 
590 2 53.2913 42.5 11.9247 
591 2 53.2913 40.7015 13.7233 
592 2 51.4927 42.5 13.7233 
593 2 55.0898 40.7015 11.9247 
594 2 56.8884 42.5 11.9247 
595 2 56.8884 40.7015 13.7233 
596 2 55.0898 42.5 13.7233 
597 2 58.6869 40.7015 11.9247 
598 2 60.4854 42.5 11.9247 
599 2 60.4854 40.7015 13.7233 
600 2 58.6869 42.5 13.7233 
601 2 62.284 40.7015 11.9247 
602 2 64.0825 42.5 11.9247 
603 2 64.0825 40.7015 13.7233 
604 2 62.284 42.5 13.7233 
605 2 65.8811 40.7015 11.9247 
606 2 67.6796 42.5 11.9247 
607 2 67.6796 40.7015 13.7233 
608 2 65.8811 42.5 13.7233 
609 2 69.4782 40.7015 11.9247 
610 2 71.2767 42.5 11.9247 
611 2 71.2767 40.7015 13.7233 
612 2 69.4782 42.5 13.7233 
613 2 11.9247 44.2985 11.9247 
614 2 13.7233 46.0971 11.9247 
615 2 13.7233 44.2985 13.7233 
616 2 11.9247 46.0971 13.7233 
617 2 15.5218 44.2985 11.9247 
618 2 17.3204 46.0971 11.9247 
619 2 17.3204 44.2985 13.7233 
620 2 15.5218 46.0971 13.7233 
621 2 19.1189 44.2985 11.9247 
622 2 20.9175 46.0971 11.9247 
623 2 20.9175 44.2985 13.7233 
624 2 19.1189 46.0971 13.7233 
625 2 22.716 44.2985 11.9247 
626 2 24.5146 46.0971 11.9247 
627 2 24.5146 44.2985 13.7233 
628 2 22.716 46.0971 13.7233 
629 2 26.3131 44.2985 11.9247 
630 2 28.1116 46.0971 11.9247 
631 2 28.1116 44.2985 13.7233 
632 2 26.3131 46.0971 13.7233 
633 2 29.9102 44.2985 11.9247 
634 2 31.7087 46.0971 11.9247 
635 2 31.7087 44.2985 13.7233 
636 2 29.9102 46.0971 13.7233 
637 2 33.5073 44.2985 11.9247 
638 2 35.3058 46.0971 11.9247 
639 2 35.3058 44.2985 13.7233 
640 2 33.5073 46.0971 13.7233 
641 2 37.1044 44.2985 11.9247 
642 2 38.9029 46.0971 11.9247 
643 2 38.9029 44.2985 13.7233 
644 2 37.1044 46.0971 13.7233 
645 2 40.7015 44.2985 11.9247 
646 2 42.5 46.0971 11.9247 
647 2 42.5 44.2985 13.7233 
648 2 40.7015 46.0971 13.7233 
649 2 44.2985 44.2985 11.9247 
650 2 46.0971 46.0971 11.9247 
651 2 46.0971 44.2985 13.7233 
652 2 44.2985 46.0971 13.7233 
653 2 47.8956 44.2985 11.9247 
654 2 49.6942 46.0971 11.9247 
655 2 49.6942 44.2985 13.7233 
656 2 47.8956 46.0971 13.7233 
657 2 51.4927 44.2985 11.9247 
658 2 53.2913 46.0971 11.9247 
659 2 53.2913 44.2985 13.7233 
660 2 51.4927 46.0971 13.7233 
661 2 55.0898 44.2985 11.9247 
662 2 56.8884 46.0971 11.9247 
663 2 56.8884 44.2985 13.7233 
664 2 55.0898 46.0971 13.7233 
665 2 58.6869 44.2985 11.9247 
666 2 60.4854 46.0971 11.9247 
667 2 60.4854 44.2985 13.7233 
668 2 58.6869 46.0971 13.7233 
669 2 62.284 44.2985 11.9247 
670 2 64.0825 46.0971 11.9247 
671 2 64.0825 44.2985 13.7233 
672 2 62.284 46.0971 13.7233 
673 2 65.8811 44.2985 11.9247 
674 2 67.6796 46.0971 11.9247 
675 2 67.6796 44.2985 13.7233 
676 2 65.8811 46.0971 13.7233 
677 2 69.4782 44.2985 11.9247 
678 2 71.2767 46.0971 11.9247 
679 2 71.2767 44.2985 13.7233 
680 2 69.4782 46.0971 13.7233 
681 2 11.9247 47.8956 11.9247 
682 2 13.7233 49.6942 11.9247 
683 2 13.7233 47.8956 13.7233 
684 2 11.9247 49.6942 13.7233 
685 2 15.5218 47.8956 11.9247 
686 2 17.3204 49.6942 11.9247 
687 2 17.3204 47.8956 13.7233 
688 2 15.5218 49.6942 13.7233 
689 2 19.1189 47.8956 11.9247 
690 2 20.9175 49.6942 11.9247 
691 2 20.9175 47.8956 13.7233 
692 2 19.1189 49.6942 13.7233 
693 2 22.716 47.8956 11.9247 
694 2 24.5146 49.6942 11.9247 
695 2 24.5146 47.8956 13.7233 
696 2 22.716 49.6942 13.7233 
697 2 26.3131 47.8956 11.9247 
698 2 28.1116 49.6942 11.9247 
699 2 28.1116 47.8956 13.7233 
700 2 26.3131 49.6942 13.7233 
701 2 29.9102 47.8956 11.9247 
702 2 31.7087 49.6942 11.9247 
703 2 31.7087 47.8956 13.7233 
704 2 29.9102 49.6942 13.7233 
705 2 33.5073 47.8956 11.9247 
706 2 35.3058 49.6942 11.9247 
707 2 35.3058 47.8956 13.7233 
708 2 33.5073 49.6942 13.7233 
709 2 37.1044 47.8956 11.9247 
710 2 38.9029 49.6942 11.9247 
711 2 38.9029 47.8956 13.7233 
712 2 37.1044 49.6942 13.7233 
713 2 40.7015 47.8956 11.9247 
714 2 42.5 49.6942 11.9247 
715 2 42.5 47.8956 13.7233 
716 2 40.7015 49.6942 13.7233 
717 2 44.2985 47.8956 11.9247 
718 2 46.0971 49.6942 11.9247 
719 2 46.0971 47.8956 13.7233 
720 2 44.2985 49.6942 13.7233 
721 2 47.8956 47.8956 11.9247 
722 2 49.6942 49.6942 11.9247 
723 2 49.6942 47.8956 13.7233 
724 2 47.8956 49.6942 13.7233 
725 2 51.4927 47.8956 11.9247 
726 2 53.2913 49.6942 11.9247 
727 2 53.2913 47.8956 13.7233 
728 2 51.4927 49.6942 13.7233 
729 2 55.0898 47.8956 11.9247 
730 2 56.8884 49.6942 11.9247 
731 2 56.8884 47.8956 13.7233 
732 2 55.0898 49.6942 13.7233 
733 2 58.6869 47.8956 11.9247 
734 2 60.4854 49.6942 11.9247 
735 2 60.4854 47.8956 13.7233 
736 2 58.6869 49.6942 13.7233 
737 2 62.284 47.8956 11.9247 
738 2 64.0825 49.6942 11.9247 
739 2 64.0825 47.8956 13.7233 
740 2 62.284 49.6942 13.7233 
741 2 65.8811 47.8956 11.9247 
742 2 67.6796 49.6942 11.9247 
743 2 67.6796 47.8956 13.7233 
744 2 65.8811 49.6942 13.7233 
745 2 69.4782 47.8956 11.9247 
746 2 71.2767 49.6942 11.9247 
747 2 71.2767 47.8956 13.7233 
748 2 69.4782 49.6942 13.7233 
749 2 11.9247 51.4927 11.9247 
750 2 13.7233 53.2913 11.9247 
751 2 13.7233 51.4927 13.7233 
752 2 11.9247 53.2913 13.7233 
753 2 15.5218 51.4927 11.9247 
754 2 17.3204 53.2913 11.9247 
755 2 17.3204 51.4927 13.7233 
756 2 15.5218 53.2913 13.7233 
757 2 19.1189 51.4927 11.9247 
758 2 20.9175 53.2913 11.9247 
759 2 20.9175 51.4927 13.7233 
760 2 19.1189 53.2913 13.7233 
761 2 22.716 51.4927 11.9247 
762 2 24.5146 53.2913 11.9247 
763 2 24.5146 51.4927 13.7233 
764 2 22.716 53.2913 13.7233 
765 2 26.3131 51.4927 11.9247 
766 2 28.1116 53.2913 11.9247 
767 2 28.1116 51.4927 13.7233 
768 2 26.3131 53.2913 13.7233 
769 2 29.9102 51.4927 11.9247 
770 2 31.7087 53.2913 11.9247 
771 2 31.7087 51.4927 13.7233 
772 2 29.9102 53.2913 13.7233 
773 2 33.5073 51.4927 11.9247 
774 2 35.3058 53.2913 11.9247 
775 2 35.3058 51.4927 13.7233 
776 2 33.5073 53.2913 13.7233 
777 2 37.1044 51.4927 11.9247 
778 2 38.9029 53.2913 11.9247 
779 2 38.9029 51.4927 13.7233 
780 2 37.1044 53.2913 13.7233 
781 2 40.7015 51.4927 11.9247 
782 2 42.5 53.2913 11.9247 
783 2 42.5 51.4927 13.7233 
784 2 40.7015 53.2913 13.7233 
785 2 44.2985 51.4927 11.9247 
786 2 46.0971 53.2913 11.9247 
787 2 46.0971 51.4927 13.7233 
788 2 44.2985 53.2913 13.7233 
789 2 47.8956 51.4927 11.9247 
790 2 49.6942 53.2913 11.9247 
791 2 49.6942 51.4927 13.7233 
792 2 47.8956 53.2913 13.7233 
793 2 51.4927 51.4927 11.9247 
794 2 53.2913 53.2913 11.9247 
795 2 53.2913 51.4927 13.7233 
796 2 51.4927 53.2913 13.7233 
797 2 55.0898 51.4927 11.9247 
798 2 56.8884 53.2913 11.9247 
799 2 56.8884 51.4927 13.7233 
800 2 55.0898 53.2913 13.7233 
801 2 58.6869 51.4927 11.9247 
802 2 60.4854 53.2913 11.9247 
803 2 60.4854 51.4927 13.7233 
804 2 58.6869 53.2913 13.7233 
805 2 62.284 51.4927 11.9247 
806 2 64.0825 53.2913 11.9247 
807 2 64.0825 51.4927 13.7233 
808 2 62.284 53.2913 13.7233 
809 2 65.8811 51.4927 11.9247 
810 2 67.6796 53.2913 11.9247 
811 2 67.6796 51.4927 13.7233 
812 2 65.8811 53.2913 13.7233 
813 2 69.4782 51.4927 11.9247 
814 2 71.2767 53.2913 11.9247 
815 2 71.2767 51.4927 13.7233 
816 2 69.4782 53.2913 13.7233 
817 2 11.9247 55.0898 11.9247 
818 2 13.7233 56.8884 11.9247 
819 2 13.7233 55.0898 13.7233 
820 2 11.9247 56.8884 13.7233 
821 2 15.5218 55.0898 11.9247 
822 2 17.3204 56.8884 11.9247 
823 2 17.3204 55.0898 13.7233 
824 2 15.5218 56.8884 13.7233 
825 2 19.1189 55.0898 11.9247 
826 2 20.9175 56.8884 11.9247 
827 2 20.9175 55.0898 13.7233 
828 2 19.1189 56.8884 13.7233 
829 2 22.716 55.0898 11.9247 
830 2 24.5146 56.8884 11.9247 
831 2 24.5146 55.0898 13.7233 
832 2 22.716 56.8884 13.7233 
833 2 26.3131 55.0898 11.9247 
834 2 28.1116 56.8884 11.9247 
835 2 28.1116 55.0898 13.7233 
836 2 26.3131 56.8884 13.7233 
837 2 29.9102 55.0898 11.9247 
838 2 31.7087 56.8884 11.9247 
839 2 31.7087 55.0898 13.7233 
840 2 29.9102 56.8884 13.7233 
841 2 33.5073 55.0898 11.9247 
842 2 35.3058 56.8884 11.9247 
843 2 35.3058 55.0898 13.7233 
844 2 33.5073 56.8884 13.7233 
845 2 37.1044 55.0898 11.9247 
846 2 38.9029 56.8884 11.9247 
847 2 38.9029 55.0898 13.7233 
848 2 37.1044 56.8884 13.7233 
849 2 40.7015 55.0898 11.9247 
850 2 42.5 56.8884 11.9247 
851 2 42.5 55.0898 13.7233 
852 2 40.7015 56.8884 13.7233 
853 2 44.2985 55.0898 11.9247 
854 2 46.0971 56.8884 11.9247 
855 2 46.0971 55.0898 13.7233 
856 2 44.2985 56.8884 13.7233 
857 2 47.8956 55.0898 11.9247 
858 2 49.6942 56.8884 11.9247 
859 2 49.6942 55.0898 13.7233 
860 2 47.8956 56.8884 13.7233 
861 2 51.4927 55.0898 11.9247 
862 2 53.2913 56.8884 11.9247 
863 2 53.2913 55.0898 13.7233 
864 2 51.4927 56.8884 13.7233 
865 2 55.0898 55.0898 11.9247 
866 2 56.8884 56.8884 11.9247 
867 2 56.8884 55.0898 13.7233 
868 2 55.0898 56.8884 13.7233 
869 2 58.6869 55.0898 11.9247 
870 2 60.4854 56.8884 11.9247 
871 2 60.4854 55.0898 13.7233 
872 2 58.6869 56.8884 13.7233 
873 2 62.284 55.0898 11.9247 
874 2 64.0825 56.8884 11.9247 
875 2 64.0825 55.0898 13.7233 
876 2 62.284 56.8884 13.7233 
877 2 65.8811 55.0898 11.9247 
878 2 67.6796 56.8884 11.9247 
879 2 67.6796 55.0898 13.7233 
880 2 65.8811 56.8884 13.7233 
881 2 69.4782 55.0898 11.9247 
882 2 71.2767 56.8884 11.9247 
883 2 71.2767 55.0898 13.7233 
884 2 69.4782 56.8884 13.7233 
885 2 11.9247 58.6869 11.9247 
886 2 13.7233 60.4854 11.9247 
887 2 13.7233 58.6869 13.7233 
888 2 11.9247 60.4854 13.7233 
889 2 15.5218 58.6869 11.9247 
890 2 17.3204 60.4854 11.9247 
891 2 17.3204 58.6869 13.7233 
892 2 15.5218 60.4854 13.7233 
893 2 19.1189 58.6869 11.9247 
894 2 20.9175 60.4854 11.9247 
895 2 20.9175 58.6869 13.7233 
896 2 19.1189 60.4854 13.7233 
897 2 22.716 58.6869 11.9247 
898 2 24.5146 60.4854 11.9247 
899 2 24.5146 58.6869 13.7233 
900 2 22.716 60.4854 13.7233 
901 2 26.3131 58.6869 11.9247 
902 2 28.1116 60.4854 11.9247 
903 2 28.1116 58.6869 13.7233 
904 2 26.3131 60.4854 13.7233 
905 2 29.9102 58.6869 11.9247 
906 2 31.7087 60.4854 11.9247 
907 2 31.7087 58.6869 13.7233 
908 2 29.9102 60.4854 13.7233 
909 2 33.5073 58.6869 11.9247 
910 2 35.3058 60.4854 11.9247 
911 2 35.3058 58.6869 13.7233 
912 2 33.5073 60.4854 13.7233 
913 2 37.1044 58.6869 11.9247 
914 2 38.9029 60.4854 11.9247 
915 2 38.9029 58.6869 13.7233 
916 2 37.1044 60.4854 13.7233 
917 2 40.7015 58.6869 11.9247 
918 2 42.5 60.4854 11.9247 
919 2 42.5 58.6869 13.7233 
920 2 40.7015 60.4854 13.7233 
921 2 44.2985 58.6869 11.9247 
922 2 46.0971 60.4854 11.9247 
923 2 46.0971 58.6869 13.7233 
924 2 44.2985 60.4854 13.7233 
925 2 47.8956 58.6869 11.9247 
926 2 49.6942 60.4854 11.9247 
927 2 49.6942 58.6869 13.7233 
928 2 47.8956 60.4854 13.7233 
929 2 51.4927 58.6869 11.9247 
930 2 53.2913 60.4854 11.9247 
931 2 53.2913 58.6869 13.7233 
932 2 51.4927 60.4854 13.7233 
933 2 55.0898 58.6869 11.9247 
934 2 56.8884 60.4854 11.9247 
935 2 56.8884 58.6869 13.7233 
936 2 55.0898 60.4854 13.7233 
937 2 58.6869 58.6869 11.9247 
938 2 60.4854 60.4854 11.9247 
939 2 60.4854 58.6869 13.7233 
940 2 58.6869 60.4854 13.7233 
941 2 62.284 58.6869 11.9247 
942 2 64.0825 60.4854 11.9247 
943 2 64.0825 58.6869 13.7233 
944 2 62.284 60.4854 13.7233 
945 2 65.8811 58.6869 11.9247 
946 2 67.6796 60.4854 11.9247 
947 2 67.6796 58.6869 13.7233 
948 2 65.8811 60.4854 13.7233 
949 2 69.4782 58.6869 11.9247 
950 2 71.2767 60.4854 11.9247 
951 2 71.2767 58.6869 13.7233 
952 2 69.4782 60.4854 13.7233 
953 2 11.9247 62.284 11.9247 
954 2 13.7233 64.0825 11.9247 
955 2 13.7233 62.284 13.7233 
956 2 11.9247 64.0825 13.7233 
957 2 15.5218 62.284 11.9247 
958 2 17.3204 64.0825 11.9247 
959 2 17.3204 62.284 13.7233 
960 2 15.5218 64.0825 13.7233 
961 2 19.1189 62.284 11.9247 
962 2 20.9175 64.0825 11.9247 
963 2 20.9175 62.284 13.7233 
964 2 19.1189 64.0825 13.7233 
965 2 22.716 62.284 11.9247 
966 2 24.5146 64.0825 11.9247 
967 2 24.5146 62.284 13.7233 
968 2 22.716 64.0825 13.7233 
969 2 26.3131 62.284 11.9247 
970 2 28.1116 64.0825 11.9247 
971 2 28.1116 62.284 13.7233 
972 2 26.3131 64.0825 13.7233 