ITEM: TIMESTEP
33
ITEM: NUMBER OF ATOMS
9826
ITEM: BOX BOUNDS pp pp pp
6.4518988891988212e+00 7.8548101110801014e+01
6.4518988891988212e+00 7.8548101110801014e+01
6.4518988891988212e+00 7.8548101110801014e+01
ITEM: ATOMS id type xu yu zu 
1 1 6.4519 6.4519 6.4519 
2 1 8.57238 8.57238 8.57238 
3 1 10.6929 6.4519 6.4519 
4 1 12.8133 8.57238 8.57238 
5 1 14.9338 6.4519 6.4519 
6 1 17.0543 8.57238 8.57238 
7 1 19.1748 6.4519 6.4519 
8 1 21.2952 8.57238 8.57238 
9 1 23.4157 6.4519 6.4519 
10 1 25.5362 8.57238 8.57238 
11 1 27.6567 6.4519 6.4519 
12 1 29.7771 8.57238 8.57238 
13 1 31.8976 6.4519 6.4519 
14 1 34.0181 8.57238 8.57238 
15 1 36.1386 6.4519 6.4519 
16 1 38.259 8.57238 8.57238 
17 1 40.3795 6.4519 6.4519 
18 1 42.5 8.57238 8.57238 
19 1 44.6205 6.4519 6.4519 
20 1 46.741 8.57238 8.57238 
21 1 48.8614 6.4519 6.4519 
22 1 50.9819 8.57238 8.57238 
23 1 53.1024 6.4519 6.4519 
24 1 55.2229 8.57238 8.57238 
25 1 57.3433 6.4519 6.4519 
26 1 59.4638 8.57238 8.57238 
27 1 61.5843 6.4519 6.4519 
28 1 63.7048 8.57238 8.57238 
29 1 65.8252 6.4519 6.4519 
30 1 67.9457 8.57238 8.57238 
31 1 70.0662 6.4519 6.4519 
32 1 72.1867 8.57238 8.57238 
33 1 74.3071 6.4519 6.4519 
34 1 76.4276 8.57238 8.57238 
35 1 6.4519 10.6929 6.4519 
36 1 8.57238 12.8133 8.57238 
37 1 10.6929 10.6929 6.4519 
38 1 12.8133 12.8133 8.57238 
39 1 14.9338 10.6929 6.4519 
40 1 17.0543 12.8133 8.57238 
41 1 19.1748 10.6929 6.4519 
42 1 21.2952 12.8133 8.57238 
43 1 23.4157 10.6929 6.4519 
44 1 25.5362 12.8133 8.57238 
45 1 27.6567 10.6929 6.4519 
46 1 29.7771 12.8133 8.57238 
47 1 31.8976 10.6929 6.4519 
48 1 34.0181 12.8133 8.57238 
49 1 36.1386 10.6929 6.4519 
50 1 38.259 12.8133 8.57238 
51 1 40.3795 10.6929 6.4519 
52 1 42.5 12.8133 8.57238 
53 1 44.6205 10.6929 6.4519 
54 1 46.741 12.8133 8.57238 
55 1 48.8614 10.6929 6.4519 
56 1 50.9819 12.8133 8.57238 
57 1 53.1024 10.6929 6.4519 
58 1 55.2229 12.8133 8.57238 
59 1 57.3433 10.6929 6.4519 
60 1 59.4638 12.8133 8.57238 
61 1 61.5843 10.6929 6.4519 
62 1 63.7048 12.8133 8.57238 
63 1 65.8252 10.6929 6.4519 
64 1 67.9457 12.8133 8.57238 
65 1 70.0662 10.6929 6.4519 
66 1 72.1867 12.8133 8.57238 
67 1 74.3071 10.6929 6.4519 
68 1 76.4276 12.8133 8.57238 
69 1 6.4519 14.9338 6.4519 
70 1 8.57238 17.0543 8.57238 
71 1 10.6929 14.9338 6.4519 
72 1 12.8133 17.0543 8.57238 
73 1 14.9338 14.9338 6.4519 
74 1 17.0543 17.0543 8.57238 
75 1 19.1748 14.9338 6.4519 
76 1 21.2952 17.0543 8.57238 
77 1 23.4157 14.9338 6.4519 
78 1 25.5362 17.0543 8.57238 
79 1 27.6567 14.9338 6.4519 
80 1 29.7771 17.0543 8.57238 
81 1 31.8976 14.9338 6.4519 
82 1 34.0181 17.0543 8.57238 
83 1 36.1386 14.9338 6.4519 
84 1 38.259 17.0543 8.57238 
85 1 40.3795 14.9338 6.4519 
86 1 42.5 17.0543 8.57238 
87 1 44.6205 14.9338 6.4519 
88 1 46.741 17.0543 8.57238 
89 1 48.8614 14.9338 6.4519 
90 1 50.9819 17.0543 8.57238 
91 1 53.1024 14.9338 6.4519 
92 1 55.2229 17.0543 8.57238 
93 1 57.3433 14.9338 6.4519 
94 1 59.4638 17.0543 8.57238 
95 1 61.5843 14.9338 6.4519 
96 1 63.7048 17.0543 8.57238 
97 1 65.8252 14.9338 6.4519 
98 1 67.9457 17.0543 8.57238 
99 1 70.0662 14.9338 6.4519 
100 1 72.1867 17.0543 8.57238 
101 1 74.3071 14.9338 6.4519 
102 1 76.4276 17.0543 8.57238 
103 1 6.4519 19.1748 6.4519 
104 1 8.57238 21.2952 8.57238 
105 1 10.6929 19.1748 6.4519 
106 1 12.8133 21.2952 8.57238 
107 1 14.9338 19.1748 6.4519 
108 1 17.0543 21.2952 8.57238 
109 1 19.1748 19.1748 6.4519 
110 1 21.2952 21.2952 8.57238 
111 1 23.4157 19.1748 6.4519 
112 1 25.5362 21.2952 8.57238 
113 1 27.6567 19.1748 6.4519 
114 1 29.7771 21.2952 8.57238 
115 1 31.8976 19.1748 6.4519 
116 1 34.0181 21.2952 8.57238 
117 1 36.1386 19.1748 6.4519 
118 1 38.259 21.2952 8.57238 
119 1 40.3795 19.1748 6.4519 
120 1 42.5 21.2952 8.57238 
121 1 44.6205 19.1748 6.4519 
122 1 46.741 21.2952 8.57238 
123 1 48.8614 19.1748 6.4519 
124 1 50.9819 21.2952 8.57238 
125 1 53.1024 19.1748 6.4519 
126 1 55.2229 21.2952 8.57238 
127 1 57.3433 19.1748 6.4519 
128 1 59.4638 21.2952 8.57238 
129 1 61.5843 19.1748 6.4519 
130 1 63.7048 21.2952 8.57238 
131 1 65.8252 19.1748 6.4519 
132 1 67.9457 21.2952 8.57238 
133 1 70.0662 19.1748 6.4519 
134 1 72.1867 21.2952 8.57238 
135 1 74.3071 19.1748 6.4519 
136 1 76.4276 21.2952 8.57238 
137 1 6.4519 23.4157 6.4519 
138 1 8.57238 25.5362 8.57238 
139 1 10.6929 23.4157 6.4519 
140 1 12.8133 25.5362 8.57238 
141 1 14.9338 23.4157 6.4519 
142 1 17.0543 25.5362 8.57238 
143 1 19.1748 23.4157 6.4519 
144 1 21.2952 25.5362 8.57238 
145 1 23.4157 23.4157 6.4519 
146 1 25.5362 25.5362 8.57238 
147 1 27.6567 23.4157 6.4519 
148 1 29.7771 25.5362 8.57238 
149 1 31.8976 23.4157 6.4519 
150 1 34.0181 25.5362 8.57238 
151 1 36.1386 23.4157 6.4519 
152 1 38.259 25.5362 8.57238 
153 1 40.3795 23.4157 6.4519 
154 1 42.5 25.5362 8.57238 
155 1 44.6205 23.4157 6.4519 
156 1 46.741 25.5362 8.57238 
157 1 48.8614 23.4157 6.4519 
158 1 50.9819 25.5362 8.57238 
159 1 53.1024 23.4157 6.4519 
160 1 55.2229 25.5362 8.57238 
161 1 57.3433 23.4157 6.4519 
162 1 59.4638 25.5362 8.57238 
163 1 61.5843 23.4157 6.4519 
164 1 63.7048 25.5362 8.57238 
165 1 65.8252 23.4157 6.4519 
166 1 67.9457 25.5362 8.57238 
167 1 70.0662 23.4157 6.4519 
168 1 72.1867 25.5362 8.57238 
169 1 74.3071 23.4157 6.4519 
170 1 76.4276 25.5362 8.57238 
171 1 6.4519 27.6567 6.4519 
172 1 8.57238 29.7771 8.57238 
173 1 10.6929 27.6567 6.4519 
174 1 12.8133 29.7771 8.57238 
175 1 14.9338 27.6567 6.4519 
176 1 17.0543 29.7771 8.57238 
177 1 19.1748 27.6567 6.4519 
178 1 21.2952 29.7771 8.57238 
179 1 23.4157 27.6567 6.4519 
180 1 25.5362 29.7771 8.57238 
181 1 27.6567 27.6567 6.4519 
182 1 29.7771 29.7771 8.57238 
183 1 31.8976 27.6567 6.4519 
184 1 34.0181 29.7771 8.57238 
185 1 36.1386 27.6567 6.4519 
186 1 38.259 29.7771 8.57238 
187 1 40.3795 27.6567 6.4519 
188 1 42.5 29.7771 8.57238 
189 1 44.6205 27.6567 6.4519 
190 1 46.741 29.7771 8.57238 
191 1 48.8614 27.6567 6.4519 
192 1 50.9819 29.7771 8.57238 
193 1 53.1024 27.6567 6.4519 
194 1 55.2229 29.7771 8.57238 
195 1 57.3433 27.6567 6.4519 
196 1 59.4638 29.7771 8.57238 
197 1 61.5843 27.6567 6.4519 
198 1 63.7048 29.7771 8.57238 
199 1 65.8252 27.6567 6.4519 
200 1 67.9457 29.7771 8.57238 
201 1 70.0662 27.6567 6.4519 
202 1 72.1867 29.7771 8.57238 
203 1 74.3071 27.6567 6.4519 
204 1 76.4276 29.7771 8.57238 
205 1 6.4519 31.8976 6.4519 
206 1 8.57238 34.0181 8.57238 
207 1 10.6929 31.8976 6.4519 
208 1 12.8133 34.0181 8.57238 
209 1 14.9338 31.8976 6.4519 
210 1 17.0543 34.0181 8.57238 
211 1 19.1748 31.8976 6.4519 
212 1 21.2952 34.0181 8.57238 
213 1 23.4157 31.8976 6.4519 
214 1 25.5362 34.0181 8.57238 
215 1 27.6567 31.8976 6.4519 
216 1 29.7771 34.0181 8.57238 
217 1 31.8976 31.8976 6.4519 
218 1 34.0181 34.0181 8.57238 
219 1 36.1386 31.8976 6.4519 
220 1 38.259 34.0181 8.57238 
221 1 40.3795 31.8976 6.4519 
222 1 42.5 34.0181 8.57238 
223 1 44.6205 31.8976 6.4519 
224 1 46.741 34.0181 8.57238 
225 1 48.8614 31.8976 6.4519 
226 1 50.9819 34.0181 8.57238 
227 1 53.1024 31.8976 6.4519 
228 1 55.2229 34.0181 8.57238 
229 1 57.3433 31.8976 6.4519 
230 1 59.4638 34.0181 8.57238 
231 1 61.5843 31.8976 6.4519 
232 1 63.7048 34.0181 8.57238 
233 1 65.8252 31.8976 6.4519 
234 1 67.9457 34.0181 8.57238 
235 1 70.0662 31.8976 6.4519 
236 1 72.1867 34.0181 8.57238 
237 1 74.3071 31.8976 6.4519 
238 1 76.4276 34.0181 8.57238 
239 1 6.4519 36.1386 6.4519 
240 1 8.57238 38.259 8.57238 
241 1 10.6929 36.1386 6.4519 
242 1 12.8133 38.259 8.57238 
243 1 14.9338 36.1386 6.4519 
244 1 17.0543 38.259 8.57238 
245 1 19.1748 36.1386 6.4519 
246 1 21.2952 38.259 8.57238 
247 1 23.4157 36.1386 6.4519 
248 1 25.5362 38.259 8.57238 
249 1 27.6567 36.1386 6.4519 
250 1 29.7771 38.259 8.57238 
251 1 31.8976 36.1386 6.4519 
252 1 34.0181 38.259 8.57238 
253 1 36.1386 36.1386 6.4519 
254 1 38.259 38.259 8.57238 
255 1 40.3795 36.1386 6.4519 
256 1 42.5 38.259 8.57238 
257 1 44.6205 36.1386 6.4519 
258 1 46.741 38.259 8.57238 
259 1 48.8614 36.1386 6.4519 
260 1 50.9819 38.259 8.57238 
261 1 53.1024 36.1386 6.4519 
262 1 55.2229 38.259 8.57238 
263 1 57.3433 36.1386 6.4519 
264 1 59.4638 38.259 8.57238 
265 1 61.5843 36.1386 6.4519 
266 1 63.7048 38.259 8.57238 
267 1 65.8252 36.1386 6.4519 
268 1 67.9457 38.259 8.57238 
269 1 70.0662 36.1386 6.4519 
270 1 72.1867 38.259 8.57238 
271 1 74.3071 36.1386 6.4519 
272 1 76.4276 38.259 8.57238 
273 1 6.4519 40.3795 6.4519 
274 1 8.57238 42.5 8.57238 
275 1 10.6929 40.3795 6.4519 
276 1 12.8133 42.5 8.57238 
277 1 14.9338 40.3795 6.4519 
278 1 17.0543 42.5 8.57238 
279 1 19.1748 40.3795 6.4519 
280 1 21.2952 42.5 8.57238 
281 1 23.4157 40.3795 6.4519 
282 1 25.5362 42.5 8.57238 
283 1 27.6567 40.3795 6.4519 
284 1 29.7771 42.5 8.57238 
285 1 31.8976 40.3795 6.4519 
286 1 34.0181 42.5 8.57238 
287 1 36.1386 40.3795 6.4519 
288 1 38.259 42.5 8.57238 
289 1 40.3795 40.3795 6.4519 
290 1 42.5 42.5 8.57238 
291 1 44.6205 40.3795 6.4519 
292 1 46.741 42.5 8.57238 
293 1 48.8614 40.3795 6.4519 
294 1 50.9819 42.5 8.57238 
295 1 53.1024 40.3795 6.4519 
296 1 55.2229 42.5 8.57238 
297 1 57.3433 40.3795 6.4519 
298 1 59.4638 42.5 8.57238 
299 1 61.5843 40.3795 6.4519 
300 1 63.7048 42.5 8.57238 
301 1 65.8252 40.3795 6.4519 
302 1 67.9457 42.5 8.57238 
303 1 70.0662 40.3795 6.4519 
304 1 72.1867 42.5 8.57238 
305 1 74.3071 40.3795 6.4519 
306 1 76.4276 42.5 8.57238 
307 1 6.4519 44.6205 6.4519 
308 1 8.57238 46.741 8.57238 
309 1 10.6929 44.6205 6.4519 
310 1 12.8133 46.741 8.57238 
311 1 14.9338 44.6205 6.4519 
312 1 17.0543 46.741 8.57238 
313 1 19.1748 44.6205 6.4519 
314 1 21.2952 46.741 8.57238 
315 1 23.4157 44.6205 6.4519 
316 1 25.5362 46.741 8.57238 
317 1 27.6567 44.6205 6.4519 
318 1 29.7771 46.741 8.57238 
319 1 31.8976 44.6205 6.4519 
320 1 34.0181 46.741 8.57238 
321 1 36.1386 44.6205 6.4519 
322 1 38.259 46.741 8.57238 
323 1 40.3795 44.6205 6.4519 
324 1 42.5 46.741 8.57238 
325 1 44.6205 44.6205 6.4519 
326 1 46.741 46.741 8.57238 
327 1 48.8614 44.6205 6.4519 
328 1 50.9819 46.741 8.57238 
329 1 53.1024 44.6205 6.4519 
330 1 55.2229 46.741 8.57238 
331 1 57.3433 44.6205 6.4519 
332 1 59.4638 46.741 8.57238 
333 1 61.5843 44.6205 6.4519 
334 1 63.7048 46.741 8.57238 
335 1 65.8252 44.6205 6.4519 
336 1 67.9457 46.741 8.57238 
337 1 70.0662 44.6205 6.4519 
338 1 72.1867 46.741 8.57238 
339 1 74.3071 44.6205 6.4519 
340 1 76.4276 46.741 8.57238 
341 1 6.4519 48.8614 6.4519 
342 1 8.57238 50.9819 8.57238 
343 1 10.6929 48.8614 6.4519 
344 1 12.8133 50.9819 8.57238 
345 1 14.9338 48.8614 6.4519 
346 1 17.0543 50.9819 8.57238 
347 1 19.1748 48.8614 6.4519 
348 1 21.2952 50.9819 8.57238 
349 1 23.4157 48.8614 6.4519 
350 1 25.5362 50.9819 8.57238 
351 1 27.6567 48.8614 6.4519 
352 1 29.7771 50.9819 8.57238 
353 1 31.8976 48.8614 6.4519 
354 1 34.0181 50.9819 8.57238 
355 1 36.1386 48.8614 6.4519 
356 1 38.259 50.9819 8.57238 
357 1 40.3795 48.8614 6.4519 
358 1 42.5 50.9819 8.57238 
359 1 44.6205 48.8614 6.4519 
360 1 46.741 50.9819 8.57238 
361 1 48.8614 48.8614 6.4519 
362 1 50.9819 50.9819 8.57238 
363 1 53.1024 48.8614 6.4519 
364 1 55.2229 50.9819 8.57238 
365 1 57.3433 48.8614 6.4519 
366 1 59.4638 50.9819 8.57238 
367 1 61.5843 48.8614 6.4519 
368 1 63.7048 50.9819 8.57238 
369 1 65.8252 48.8614 6.4519 
370 1 67.9457 50.9819 8.57238 
371 1 70.0662 48.8614 6.4519 
372 1 72.1867 50.9819 8.57238 
373 1 74.3071 48.8614 6.4519 
374 1 76.4276 50.9819 8.57238 
375 1 6.4519 53.1024 6.4519 
376 1 8.57238 55.2229 8.57238 
377 1 10.6929 53.1024 6.4519 
378 1 12.8133 55.2229 8.57238 
379 1 14.9338 53.1024 6.4519 
380 1 17.0543 55.2229 8.57238 
381 1 19.1748 53.1024 6.4519 
382 1 21.2952 55.2229 8.57238 
383 1 23.4157 53.1024 6.4519 
384 1 25.5362 55.2229 8.57238 
385 1 27.6567 53.1024 6.4519 
386 1 29.7771 55.2229 8.57238 
387 1 31.8976 53.1024 6.4519 
388 1 34.0181 55.2229 8.57238 
389 1 36.1386 53.1024 6.4519 
390 1 38.259 55.2229 8.57238 
391 1 40.3795 53.1024 6.4519 
392 1 42.5 55.2229 8.57238 
393 1 44.6205 53.1024 6.4519 
394 1 46.741 55.2229 8.57238 
395 1 48.8614 53.1024 6.4519 
396 1 50.9819 55.2229 8.57238 
397 1 53.1024 53.1024 6.4519 
398 1 55.2229 55.2229 8.57238 
399 1 57.3433 53.1024 6.4519 
400 1 59.4638 55.2229 8.57238 
401 1 61.5843 53.1024 6.4519 
402 1 63.7048 55.2229 8.57238 
403 1 65.8252 53.1024 6.4519 
404 1 67.9457 55.2229 8.57238 
405 1 70.0662 53.1024 6.4519 
406 1 72.1867 55.2229 8.57238 
407 1 74.3071 53.1024 6.4519 
408 1 76.4276 55.2229 8.57238 
409 1 6.4519 57.3433 6.4519 
410 1 8.57238 59.4638 8.57238 
411 1 10.6929 57.3433 6.4519 
412 1 12.8133 59.4638 8.57238 
413 1 14.9338 57.3433 6.4519 
414 1 17.0543 59.4638 8.57238 
415 1 19.1748 57.3433 6.4519 
416 1 21.2952 59.4638 8.57238 
417 1 23.4157 57.3433 6.4519 
418 1 25.5362 59.4638 8.57238 
419 1 27.6567 57.3433 6.4519 
420 1 29.7771 59.4638 8.57238 
421 1 31.8976 57.3433 6.4519 
422 1 34.0181 59.4638 8.57238 
423 1 36.1386 57.3433 6.4519 
424 1 38.259 59.4638 8.57238 
425 1 40.3795 57.3433 6.4519 
426 1 42.5 59.4638 8.57238 
427 1 44.6205 57.3433 6.4519 
428 1 46.741 59.4638 8.57238 
429 1 48.8614 57.3433 6.4519 
430 1 50.9819 59.4638 8.57238 
431 1 53.1024 57.3433 6.4519 
432 1 55.2229 59.4638 8.57238 
433 1 57.3433 57.3433 6.4519 
434 1 59.4638 59.4638 8.57238 
435 1 61.5843 57.3433 6.4519 
436 1 63.7048 59.4638 8.57238 
437 1 65.8252 57.3433 6.4519 
438 1 67.9457 59.4638 8.57238 
439 1 70.0662 57.3433 6.4519 
440 1 72.1867 59.4638 8.57238 
441 1 74.3071 57.3433 6.4519 
442 1 76.4276 59.4638 8.57238 
443 1 6.4519 61.5843 6.4519 
444 1 8.57238 63.7048 8.57238 
445 1 10.6929 61.5843 6.4519 
446 1 12.8133 63.7048 8.57238 
447 1 14.9338 61.5843 6.4519 
448 1 17.0543 63.7048 8.57238 
449 1 19.1748 61.5843 6.4519 
450 1 21.2952 63.7048 8.57238 
451 1 23.4157 61.5843 6.4519 
452 1 25.5362 63.7048 8.57238 
453 1 27.6567 61.5843 6.4519 
454 1 29.7771 63.7048 8.57238 
455 1 31.8976 61.5843 6.4519 
456 1 34.0181 63.7048 8.57238 
457 1 36.1386 61.5843 6.4519 
458 1 38.259 63.7048 8.57238 
459 1 40.3795 61.5843 6.4519 
460 1 42.5 63.7048 8.57238 
461 1 44.6205 61.5843 6.4519 
462 1 46.741 63.7048 8.57238 
463 1 48.8614 61.5843 6.4519 
464 1 50.9819 63.7048 8.57238 
465 1 53.1024 61.5843 6.4519 
466 1 55.2229 63.7048 8.57238 
467 1 57.3433 61.5843 6.4519 
468 1 59.4638 63.7048 8.57238 
469 1 61.5843 61.5843 6.4519 
470 1 63.7048 63.7048 8.57238 
471 1 65.8252 61.5843 6.4519 
472 1 67.9457 63.7048 8.57238 
473 1 70.0662 61.5843 6.4519 
474 1 72.1867 63.7048 8.57238 
475 1 74.3071 61.5843 6.4519 
476 1 76.4276 63.7048 8.57238 
477 1 6.4519 65.8252 6.4519 
478 1 8.57238 67.9457 8.57238 
479 1 10.6929 65.8252 6.4519 
480 1 12.8133 67.9457 8.57238 
481 1 14.9338 65.8252 6.4519 
482 1 17.0543 67.9457 8.57238 
483 1 19.1748 65.8252 6.4519 
484 1 21.2952 67.9457 8.57238 
485 1 23.4157 65.8252 6.4519 
486 1 25.5362 67.9457 8.57238 
487 1 27.6567 65.8252 6.4519 
488 1 29.7771 67.9457 8.57238 
489 1 31.8976 65.8252 6.4519 
490 1 34.0181 67.9457 8.57238 
491 1 36.1386 65.8252 6.4519 
492 1 38.259 67.9457 8.57238 
493 1 40.3795 65.8252 6.4519 
494 1 42.5 67.9457 8.57238 
495 1 44.6205 65.8252 6.4519 
496 1 46.741 67.9457 8.57238 
497 1 48.8614 65.8252 6.4519 
498 1 50.9819 67.9457 8.57238 
499 1 53.1024 65.8252 6.4519 
500 1 55.2229 67.9457 8.57238 
501 1 57.3433 65.8252 6.4519 
502 1 59.4638 67.9457 8.57238 
503 1 61.5843 65.8252 6.4519 
504 1 63.7048 67.9457 8.57238 
505 1 65.8252 65.8252 6.4519 
506 1 67.9457 67.9457 8.57238 
507 1 70.0662 65.8252 6.4519 
508 1 72.1867 67.9457 8.57238 
509 1 74.3071 65.8252 6.4519 
510 1 76.4276 67.9457 8.57238 
511 1 6.4519 70.0662 6.4519 
512 1 8.57238 72.1867 8.57238 
513 1 10.6929 70.0662 6.4519 
514 1 12.8133 72.1867 8.57238 
515 1 14.9338 70.0662 6.4519 
516 1 17.0543 72.1867 8.57238 
517 1 19.1748 70.0662 6.4519 
518 1 21.2952 72.1867 8.57238 
519 1 23.4157 70.0662 6.4519 
520 1 25.5362 72.1867 8.57238 
521 1 27.6567 70.0662 6.4519 
522 1 29.7771 72.1867 8.57238 
523 1 31.8976 70.0662 6.4519 
524 1 34.0181 72.1867 8.57238 
525 1 36.1386 70.0662 6.4519 
526 1 38.259 72.1867 8.57238 
527 1 40.3795 70.0662 6.4519 
528 1 42.5 72.1867 8.57238 
529 1 44.6205 70.0662 6.4519 
530 1 46.741 72.1867 8.57238 
531 1 48.8614 70.0662 6.4519 
532 1 50.9819 72.1867 8.57238 
533 1 53.1024 70.0662 6.4519 
534 1 55.2229 72.1867 8.57238 
535 1 57.3433 70.0662 6.4519 
536 1 59.4638 72.1867 8.57238 
537 1 61.5843 70.0662 6.4519 
538 1 63.7048 72.1867 8.57238 
539 1 65.8252 70.0662 6.4519 
540 1 67.9457 72.1867 8.57238 
541 1 70.0662 70.0662 6.4519 
542 1 72.1867 72.1867 8.57238 
543 1 74.3071 70.0662 6.4519 
544 1 76.4276 72.1867 8.57238 
545 1 6.4519 74.3071 6.4519 
546 1 8.57238 76.4276 8.57238 
547 1 10.6929 74.3071 6.4519 
548 1 12.8133 76.4276 8.57238 
549 1 14.9338 74.3071 6.4519 
550 1 17.0543 76.4276 8.57238 
551 1 19.1748 74.3071 6.4519 
552 1 21.2952 76.4276 8.57238 
553 1 23.4157 74.3071 6.4519 
554 1 25.5362 76.4276 8.57238 
555 1 27.6567 74.3071 6.4519 
556 1 29.7771 76.4276 8.57238 
557 1 31.8976 74.3071 6.4519 
558 1 34.0181 76.4276 8.57238 
559 1 36.1386 74.3071 6.4519 
560 1 38.259 76.4276 8.57238 
561 1 40.3795 74.3071 6.4519 
562 1 42.5 76.4276 8.57238 
563 1 44.6205 74.3071 6.4519 
564 1 46.741 76.4276 8.57238 
565 1 48.8614 74.3071 6.4519 
566 1 50.9819 76.4276 8.57238 
567 1 53.1024 74.3071 6.4519 
568 1 55.2229 76.4276 8.57238 
569 1 57.3433 74.3071 6.4519 
570 1 59.4638 76.4276 8.57238 
571 1 61.5843 74.3071 6.4519 
572 1 63.7048 76.4276 8.57238 
573 1 65.8252 74.3071 6.4519 
574 1 67.9457 76.4276 8.57238 
575 1 70.0662 74.3071 6.4519 
576 1 72.1867 76.4276 8.57238 
577 1 74.3071 74.3071 6.4519 
578 1 76.4276 76.4276 8.57238 
579 1 6.4519 6.4519 10.6929 
580 1 8.57238 8.57238 12.8133 
581 1 10.6929 6.4519 10.6929 
582 1 12.8133 8.57238 12.8133 
583 1 14.9338 6.4519 10.6929 
584 1 17.0543 8.57238 12.8133 
585 1 19.1748 6.4519 10.6929 
586 1 21.2952 8.57238 12.8133 
587 1 23.4157 6.4519 10.6929 
588 1 25.5362 8.57238 12.8133 
589 1 27.6567 6.4519 10.6929 
590 1 29.7771 8.57238 12.8133 
591 1 31.8976 6.4519 10.6929 
592 1 34.0181 8.57238 12.8133 
593 1 36.1386 6.4519 10.6929 
594 1 38.259 8.57238 12.8133 
595 1 40.3795 6.4519 10.6929 
596 1 42.5 8.57238 12.8133 
597 1 44.6205 6.4519 10.6929 
598 1 46.741 8.57238 12.8133 
599 1 48.8614 6.4519 10.6929 
600 1 50.9819 8.57238 12.8133 
601 1 53.1024 6.4519 10.6929 
602 1 55.2229 8.57238 12.8133 
603 1 57.3433 6.4519 10.6929 
604 1 59.4638 8.57238 12.8133 
605 1 61.5843 6.4519 10.6929 
606 1 63.7048 8.57238 12.8133 
607 1 65.8252 6.4519 10.6929 
608 1 67.9457 8.57238 12.8133 
609 1 70.0662 6.4519 10.6929 
610 1 72.1867 8.57238 12.8133 
611 1 74.3071 6.4519 10.6929 
612 1 76.4276 8.57238 12.8133 
613 1 6.4519 10.6929 10.6929 
614 1 8.57238 12.8133 12.8133 
615 1 10.6929 10.6929 10.6929 
616 1 12.8133 12.8133 12.8133 
617 1 14.9338 10.6929 10.6929 
618 1 17.0543 12.8133 12.8133 
619 1 19.1748 10.6929 10.6929 
620 1 21.2952 12.8133 12.8133 
621 1 23.4157 10.6929 10.6929 
622 1 25.5362 12.8133 12.8133 
623 1 27.6567 10.6929 10.6929 
624 1 29.7771 12.8133 12.8133 
625 1 31.8976 10.6929 10.6929 
626 1 34.0181 12.8133 12.8133 
627 1 36.1386 10.6929 10.6929 
628 1 38.259 12.8133 12.8133 
629 1 40.3795 10.6929 10.6929 
630 1 42.5 12.8133 12.8133 
631 1 44.6205 10.6929 10.6929 
632 1 46.741 12.8133 12.8133 
633 1 48.8614 10.6929 10.6929 
634 1 50.9819 12.8133 12.8133 
635 1 53.1024 10.6929 10.6929 
636 1 55.2229 12.8133 12.8133 
637 1 57.3433 10.6929 10.6929 
638 1 59.4638 12.8133 12.8133 
639 1 61.5843 10.6929 10.6929 
640 1 63.7048 12.8133 12.8133 
641 1 65.8252 10.6929 10.6929 
642 1 67.9457 12.8133 12.8133 
643 1 70.0662 10.6929 10.6929 
644 1 72.1867 12.8133 12.8133 
645 1 74.3071 10.6929 10.6929 
646 1 76.4276 12.8133 12.8133 
647 1 6.4519 14.9338 10.6929 
648 1 8.57238 17.0543 12.8133 
649 1 10.6929 14.9338 10.6929 
650 1 12.8133 17.0543 12.8133 
651 1 14.9338 14.9338 10.6929 
652 1 17.0543 17.0543 12.8133 
653 1 19.1748 14.9338 10.6929 
654 1 21.2952 17.0543 12.8133 
655 1 23.4157 14.9338 10.6929 
656 1 25.5362 17.0543 12.8133 
657 1 27.6567 14.9338 10.6929 
658 1 29.7771 17.0543 12.8133 
659 1 31.8976 14.9338 10.6929 
660 1 34.0181 17.0543 12.8133 
661 1 36.1386 14.9338 10.6929 
662 1 38.259 17.0543 12.8133 
663 1 40.3795 14.9338 10.6929 
664 1 42.5 17.0543 12.8133 
665 1 44.6205 14.9338 10.6929 
666 1 46.741 17.0543 12.8133 
667 1 48.8614 14.9338 10.6929 
668 1 50.9819 17.0543 12.8133 
669 1 53.1024 14.9338 10.6929 
670 1 55.2229 17.0543 12.8133 
671 1 57.3433 14.9338 10.6929 
672 1 59.4638 17.0543 12.8133 
673 1 61.5843 14.9338 10.6929 
674 1 63.7048 17.0543 12.8133 
675 1 65.8252 14.9338 10.6929 
676 1 67.9457 17.0543 12.8133 
677 1 70.0662 14.9338 10.6929 
678 1 72.1867 17.0543 12.8133 
679 1 74.3071 14.9338 10.6929 
680 1 76.4276 17.0543 12.8133 
681 1 6.4519 19.1748 10.6929 
682 1 8.57238 21.2952 12.8133 
683 1 10.6929 19.1748 10.6929 
684 1 12.8133 21.2952 12.8133 
685 1 14.9338 19.1748 10.6929 
686 1 17.0543 21.2952 12.8133 
687 1 19.1748 19.1748 10.6929 
688 1 21.2952 21.2952 12.8133 
689 1 23.4157 19.1748 10.6929 
690 1 25.5362 21.2952 12.8133 
691 1 27.6567 19.1748 10.6929 
692 1 29.7771 21.2952 12.8133 
693 1 31.8976 19.1748 10.6929 
694 1 34.0181 21.2952 12.8133 
695 1 36.1386 19.1748 10.6929 
696 1 38.259 21.2952 12.8133 
697 1 40.3795 19.1748 10.6929 
698 1 42.5 21.2952 12.8133 
699 1 44.6205 19.1748 10.6929 
700 1 46.741 21.2952 12.8133 
701 1 48.8614 19.1748 10.6929 
702 1 50.9819 21.2952 12.8133 
703 1 53.1024 19.1748 10.6929 
704 1 55.2229 21.2952 12.8133 
705 1 57.3433 19.1748 10.6929 
706 1 59.4638 21.2952 12.8133 
707 1 61.5843 19.1748 10.6929 
708 1 63.7048 21.2952 12.8133 
709 1 65.8252 19.1748 10.6929 
710 1 67.9457 21.2952 12.8133 
711 1 70.0662 19.1748 10.6929 
712 1 72.1867 21.2952 12.8133 
713 1 74.3071 19.1748 10.6929 
714 1 76.4276 21.2952 12.8133 
715 1 6.4519 23.4157 10.6929 
716 1 8.57238 25.5362 12.8133 
717 1 10.6929 23.4157 10.6929 
718 1 12.8133 25.5362 12.8133 
719 1 14.9338 23.4157 10.6929 
720 1 17.0543 25.5362 12.8133 
721 1 19.1748 23.4157 10.6929 
722 1 21.2952 25.5362 12.8133 
723 1 23.4157 23.4157 10.6929 
724 1 25.5362 25.5362 12.8133 
725 1 27.6567 23.4157 10.6929 
726 1 29.7771 25.5362 12.8133 
727 1 31.8976 23.4157 10.6929 
728 1 34.0181 25.5362 12.8133 
729 1 36.1386 23.4157 10.6929 
730 1 38.259 25.5362 12.8133 
731 1 40.3795 23.4157 10.6929 
732 1 42.5 25.5362 12.8133 
733 1 44.6205 23.4157 10.6929 
734 1 46.741 25.5362 12.8133 
735 1 48.8614 23.4157 10.6929 
736 1 50.9819 25.5362 12.8133 
737 1 53.1024 23.4157 10.6929 
738 1 55.2229 25.5362 12.8133 
739 1 57.3433 23.4157 10.6929 
740 1 59.4638 25.5362 12.8133 
741 1 61.5843 23.4157 10.6929 
742 1 63.7048 25.5362 12.8133 
743 1 65.8252 23.4157 10.6929 
744 1 67.9457 25.5362 12.8133 
745 1 70.0662 23.4157 10.6929 
746 1 72.1867 25.5362 12.8133 
747 1 74.3071 23.4157 10.6929 
748 1 76.4276 25.5362 12.8133 
749 1 6.4519 27.6567 10.6929 
750 1 8.57238 29.7771 12.8133 
751 1 10.6929 27.6567 10.6929 
752 1 12.8133 29.7771 12.8133 
753 1 14.9338 27.6567 10.6929 
754 1 17.0543 29.7771 12.8133 
755 1 19.1748 27.6567 10.6929 
756 1 21.2952 29.7771 12.8133 
757 1 23.4157 27.6567 10.6929 
758 1 25.5362 29.7771 12.8133 
759 1 27.6567 27.6567 10.6929 
760 1 29.7771 29.7771 12.8133 
761 1 31.8976 27.6567 10.6929 
762 1 34.0181 29.7771 12.8133 
763 1 36.1386 27.6567 10.6929 
764 1 38.259 29.7771 12.8133 
765 1 40.3795 27.6567 10.6929 
766 1 42.5 29.7771 12.8133 
767 1 44.6205 27.6567 10.6929 
768 1 46.741 29.7771 12.8133 
769 1 48.8614 27.6567 10.6929 
770 1 50.9819 29.7771 12.8133 
771 1 53.1024 27.6567 10.6929 
772 1 55.2229 29.7771 12.8133 
773 1 57.3433 27.6567 10.6929 
774 1 59.4638 29.7771 12.8133 
775 1 61.5843 27.6567 10.6929 
776 1 63.7048 29.7771 12.8133 
777 1 65.8252 27.6567 10.6929 
778 1 67.9457 29.7771 12.8133 
779 1 70.0662 27.6567 10.6929 
780 1 72.1867 29.7771 12.8133 
781 1 74.3071 27.6567 10.6929 
782 1 76.4276 29.7771 12.8133 
783 1 6.4519 31.8976 10.6929 
784 1 8.57238 34.0181 12.8133 
785 1 10.6929 31.8976 10.6929 
786 1 12.8133 34.0181 12.8133 
787 1 14.9338 31.8976 10.6929 
788 1 17.0543 34.0181 12.8133 
789 1 19.1748 31.8976 10.6929 
790 1 21.2952 34.0181 12.8133 
791 1 23.4157 31.8976 10.6929 
792 1 25.5362 34.0181 12.8133 
793 1 27.6567 31.8976 10.6929 
794 1 29.7771 34.0181 12.8133 
795 1 31.8976 31.8976 10.6929 
796 1 34.0181 34.0181 12.8133 
797 1 36.1386 31.8976 10.6929 
798 1 38.259 34.0181 12.8133 
799 1 40.3795 31.8976 10.6929 
800 1 42.5 34.0181 12.8133 
801 1 44.6205 31.8976 10.6929 
802 1 46.741 34.0181 12.8133 
803 1 48.8614 31.8976 10.6929 
804 1 50.9819 34.0181 12.8133 
805 1 53.1024 31.8976 10.6929 
806 1 55.2229 34.0181 12.8133 
807 1 57.3433 31.8976 10.6929 
808 1 59.4638 34.0181 12.8133 
809 1 61.5843 31.8976 10.6929 
810 1 63.7048 34.0181 12.8133 
811 1 65.8252 31.8976 10.6929 
812 1 67.9457 34.0181 12.8133 
813 1 70.0662 31.8976 10.6929 
814 1 72.1867 34.0181 12.8133 
815 1 74.3071 31.8976 10.6929 
816 1 76.4276 34.0181 12.8133 
817 1 6.4519 36.1386 10.6929 
818 1 8.57238 38.259 12.8133 
819 1 10.6929 36.1386 10.6929 
820 1 12.8133 38.259 12.8133 
821 1 14.9338 36.1386 10.6929 
822 1 17.0543 38.259 12.8133 
823 1 19.1748 36.1386 10.6929 
824 1 21.2952 38.259 12.8133 
825 1 23.4157 36.1386 10.6929 
826 1 25.5362 38.259 12.8133 
827 1 27.6567 36.1386 10.6929 
828 1 29.7771 38.259 12.8133 
829 1 31.8976 36.1386 10.6929 
830 1 34.0181 38.259 12.8133 
831 1 36.1386 36.1386 10.6929 
832 1 38.259 38.259 12.8133 
833 1 40.3795 36.1386 10.6929 
834 1 42.5 38.259 12.8133 
835 1 44.6205 36.1386 10.6929 
836 1 46.741 38.259 12.8133 
837 1 48.8614 36.1386 10.6929 
838 1 50.9819 38.259 12.8133 
839 1 53.1024 36.1386 10.6929 
840 1 55.2229 38.259 12.8133 
841 1 57.3433 36.1386 10.6929 
842 1 59.4638 38.259 12.8133 
843 1 61.5843 36.1386 10.6929 
844 1 63.7048 38.259 12.8133 
845 1 65.8252 36.1386 10.6929 
846 1 67.9457 38.259 12.8133 
847 1 70.0662 36.1386 10.6929 
848 1 72.1867 38.259 12.8133 
849 1 74.3071 36.1386 10.6929 
850 1 76.4276 38.259 12.8133 
851 1 6.4519 40.3795 10.6929 
852 1 8.57238 42.5 12.8133 
853 1 10.6929 40.3795 10.6929 
854 1 12.8133 42.5 12.8133 
855 1 14.9338 40.3795 10.6929 
856 1 17.0543 42.5 12.8133 
857 1 19.1748 40.3795 10.6929 
858 1 21.2952 42.5 12.8133 
859 1 23.4157 40.3795 10.6929 
860 1 25.5362 42.5 12.8133 
861 1 27.6567 40.3795 10.6929 
862 1 29.7771 42.5 12.8133 
863 1 31.8976 40.3795 10.6929 
864 1 34.0181 42.5 12.8133 
865 1 36.1386 40.3795 10.6929 
866 1 38.259 42.5 12.8133 
867 1 40.3795 40.3795 10.6929 
868 1 42.5 42.5 12.8133 
869 1 44.6205 40.3795 10.6929 
870 1 46.741 42.5 12.8133 
871 1 48.8614 40.3795 10.6929 
872 1 50.9819 42.5 12.8133 
873 1 53.1024 40.3795 10.6929 
874 1 55.2229 42.5 12.8133 
875 1 57.3433 40.3795 10.6929 
876 1 59.4638 42.5 12.8133 
877 1 61.5843 40.3795 10.6929 
878 1 63.7048 42.5 12.8133 
879 1 65.8252 40.3795 10.6929 
880 1 67.9457 42.5 12.8133 
881 1 70.0662 40.3795 10.6929 
882 1 72.1867 42.5 12.8133 
883 1 74.3071 40.3795 10.6929 
884 1 76.4276 42.5 12.8133 
885 1 6.4519 44.6205 10.6929 
886 1 8.57238 46.741 12.8133 
887 1 10.6929 44.6205 10.6929 
888 1 12.8133 46.741 12.8133 
889 1 14.9338 44.6205 10.6929 
890 1 17.0543 46.741 12.8133 
891 1 19.1748 44.6205 10.6929 
892 1 21.2952 46.741 12.8133 
893 1 23.4157 44.6205 10.6929 
894 1 25.5362 46.741 12.8133 
895 1 27.6567 44.6205 10.6929 
896 1 29.7771 46.741 12.8133 
897 1 31.8976 44.6205 10.6929 
898 1 34.0181 46.741 12.8133 
899 1 36.1386 44.6205 10.6929 
900 1 38.259 46.741 12.8133 
901 1 40.3795 44.6205 10.6929 
902 1 42.5 46.741 12.8133 
903 1 44.6205 44.6205 10.6929 
904 1 46.741 46.741 12.8133 
905 1 48.8614 44.6205 10.6929 
906 1 50.9819 46.741 12.8133 
907 1 53.1024 44.6205 10.6929 
908 1 55.2229 46.741 12.8133 
909 1 57.3433 44.6205 10.6929 
910 1 59.4638 46.741 12.8133 
911 1 61.5843 44.6205 10.6929 
912 1 63.7048 46.741 12.8133 
913 1 65.8252 44.6205 10.6929 
914 1 67.9457 46.741 12.8133 
915 1 70.0662 44.6205 10.6929 
916 1 72.1867 46.741 12.8133 
917 1 74.3071 44.6205 10.6929 
918 1 76.4276 46.741 12.8133 
919 1 6.4519 48.8614 10.6929 
920 1 8.57238 50.9819 12.8133 
921 1 10.6929 48.8614 10.6929 
922 1 12.8133 50.9819 12.8133 
923 1 14.9338 48.8614 10.6929 
924 1 17.0543 50.9819 12.8133 
925 1 19.1748 48.8614 10.6929 
926 1 21.2952 50.9819 12.8133 
927 1 23.4157 48.8614 10.6929 
928 1 25.5362 50.9819 12.8133 
929 1 27.6567 48.8614 10.6929 
930 1 29.7771 50.9819 12.8133 
931 1 31.8976 48.8614 10.6929 
932 1 34.0181 50.9819 12.8133 
933 1 36.1386 48.8614 10.6929 
934 1 38.259 50.9819 12.8133 
935 1 40.3795 48.8614 10.6929 
936 1 42.5 50.9819 12.8133 
937 1 44.6205 48.8614 10.6929 
938 1 46.741 50.9819 12.8133 
939 1 48.8614 48.8614 10.6929 
940 1 50.9819 50.9819 12.8133 
941 1 53.1024 48.8614 10.6929 
942 1 55.2229 50.9819 12.8133 
943 1 57.3433 48.8614 10.6929 
944 1 59.4638 50.9819 12.8133 
945 1 61.5843 48.8614 10.6929 
946 1 63.7048 50.9819 12.8133 
947 1 65.8252 48.8614 10.6929 
948 1 67.9457 50.9819 12.8133 
949 1 70.0662 48.8614 10.6929 
950 1 72.1867 50.9819 12.8133 
951 1 74.3071 48.8614 10.6929 
952 1 76.4276 50.9819 12.8133 
953 1 6.4519 53.1024 10.6929 
954 1 8.57238 55.2229 12.8133 
955 1 10.6929 53.1024 10.6929 
956 1 12.8133 55.2229 12.8133 
957 1 14.9338 53.1024 10.6929 
958 1 17.0543 55.2229 12.8133 
959 1 19.1748 53.1024 10.6929 
960 1 21.2952 55.2229 12.8133 
961 1 23.4157 53.1024 10.6929 
962 1 25.5362 55.2229 12.8133 
963 1 27.6567 53.1024 10.6929 
964 1 29.7771 55.2229 12.8133 
965 1 31.8976 53.1024 10.6929 
966 1 34.0181 55.2229 12.8133 
967 1 36.1386 53.1024 10.6929 
968 1 38.259 55.2229 12.8133 
969 1 40.3795 53.1024 10.6929 
970 1 42.5 55.2229 12.8133 
971 1 44.6205 53.1024 10.6929 
972 1 46.741 55.2229 12.8133 
973 1 48.8614 53.1024 10.6929 
974 1 50.9819 55.2229 12.8133 
975 1 53.1024 53.1024 10.6929 
976 1 55.2229 55.2229 12.8133 
977 1 57.3433 53.1024 10.6929 
978 1 59.4638 55.2229 12.8133 
979 1 61.5843 53.1024 10.6929 
980 1 63.7048 55.2229 12.8133 
981 1 65.8252 53.1024 10.6929 
982 1 67.9457 55.2229 12.8133 
983 1 70.0662 53.1024 10.6929 
984 1 72.1867 55.2229 12.8133 
985 1 74.3071 53.1024 10.6929 