ITEM: TIMESTEP
73
ITEM: NUMBER OF ATOMS
9826
ITEM: BOX BOUNDS pp pp pp
1.4917356803709490e+01 7.0082643196290149e+01
1.4917356803709490e+01 7.0082643196290149e+01
1.4917356803709490e+01 7.0082643196290149e+01
ITEM: ATOMS id type xu yu zu 
1 2 14.9174 14.9174 14.9174 
2 2 16.5399 16.5399 16.5399 
3 2 18.1624 14.9174 14.9174 
4 2 19.7849 16.5399 16.5399 
5 2 21.4074 14.9174 14.9174 
6 2 23.0299 16.5399 16.5399 
7 2 24.6524 14.9174 14.9174 
8 2 26.2749 16.5399 16.5399 
9 2 27.8974 14.9174 14.9174 
10 2 29.5199 16.5399 16.5399 
11 2 31.1424 14.9174 14.9174 
12 2 32.7649 16.5399 16.5399 
13 2 34.3875 14.9174 14.9174 
14 2 36.01 16.5399 16.5399 
15 2 37.6325 14.9174 14.9174 
16 2 39.255 16.5399 16.5399 
17 2 40.8775 14.9174 14.9174 
18 2 42.5 16.5399 16.5399 
19 2 44.1225 14.9174 14.9174 
20 2 45.745 16.5399 16.5399 
21 2 47.3675 14.9174 14.9174 
22 2 48.99 16.5399 16.5399 
23 2 50.6125 14.9174 14.9174 
24 2 52.2351 16.5399 16.5399 
25 2 53.8576 14.9174 14.9174 
26 2 55.4801 16.5399 16.5399 
27 2 57.1026 14.9174 14.9174 
28 2 58.7251 16.5399 16.5399 
29 2 60.3476 14.9174 14.9174 
30 2 61.9701 16.5399 16.5399 
31 2 63.5926 14.9174 14.9174 
32 2 65.2151 16.5399 16.5399 
33 2 66.8376 14.9174 14.9174 
34 2 68.4601 16.5399 16.5399 
35 2 14.9174 18.1624 14.9174 
36 2 16.5399 19.7849 16.5399 
37 2 18.1624 18.1624 14.9174 
38 2 19.7849 19.7849 16.5399 
39 2 21.4074 18.1624 14.9174 
40 2 23.0299 19.7849 16.5399 
41 2 24.6524 18.1624 14.9174 
42 2 26.2749 19.7849 16.5399 
43 2 27.8974 18.1624 14.9174 
44 2 29.5199 19.7849 16.5399 
45 2 31.1424 18.1624 14.9174 
46 2 32.7649 19.7849 16.5399 
47 2 34.3875 18.1624 14.9174 
48 2 36.01 19.7849 16.5399 
49 2 37.6325 18.1624 14.9174 
50 2 39.255 19.7849 16.5399 
51 2 40.8775 18.1624 14.9174 
52 2 42.5 19.7849 16.5399 
53 2 44.1225 18.1624 14.9174 
54 2 45.745 19.7849 16.5399 
55 2 47.3675 18.1624 14.9174 
56 2 48.99 19.7849 16.5399 
57 2 50.6125 18.1624 14.9174 
58 2 52.2351 19.7849 16.5399 
59 2 53.8576 18.1624 14.9174 
60 2 55.4801 19.7849 16.5399 
61 2 57.1026 18.1624 14.9174 
62 2 58.7251 19.7849 16.5399 
63 2 60.3476 18.1624 14.9174 
64 2 61.9701 19.7849 16.5399 
65 2 63.5926 18.1624 14.9174 
66 2 65.2151 19.7849 16.5399 
67 2 66.8376 18.1624 14.9174 
68 2 68.4601 19.7849 16.5399 
69 2 14.9174 21.4074 14.9174 
70 2 16.5399 23.0299 16.5399 
71 2 18.1624 21.4074 14.9174 
72 2 19.7849 23.0299 16.5399 
73 2 21.4074 21.4074 14.9174 
74 2 23.0299 23.0299 16.5399 
75 2 24.6524 21.4074 14.9174 
76 2 26.2749 23.0299 16.5399 
77 2 27.8974 21.4074 14.9174 
78 2 29.5199 23.0299 16.5399 
79 2 31.1424 21.4074 14.9174 
80 2 32.7649 23.0299 16.5399 
81 2 34.3875 21.4074 14.9174 
82 2 36.01 23.0299 16.5399 
83 2 37.6325 21.4074 14.9174 
84 2 39.255 23.0299 16.5399 
85 2 40.8775 21.4074 14.9174 
86 2 42.5 23.0299 16.5399 
87 2 44.1225 21.4074 14.9174 
88 2 45.745 23.0299 16.5399 
89 2 47.3675 21.4074 14.9174 
90 2 48.99 23.0299 16.5399 
91 2 50.6125 21.4074 14.9174 
92 2 52.2351 23.0299 16.5399 
93 2 53.8576 21.4074 14.9174 
94 2 55.4801 23.0299 16.5399 
95 2 57.1026 21.4074 14.9174 
96 2 58.7251 23.0299 16.5399 
97 2 60.3476 21.4074 14.9174 
98 2 61.9701 23.0299 16.5399 
99 2 63.5926 21.4074 14.9174 
100 2 65.2151 23.0299 16.5399 
101 2 66.8376 21.4074 14.9174 
102 2 68.4601 23.0299 16.5399 
103 2 14.9174 24.6524 14.9174 
104 2 16.5399 26.2749 16.5399 
105 2 18.1624 24.6524 14.9174 
106 2 19.7849 26.2749 16.5399 
107 2 21.4074 24.6524 14.9174 
108 2 23.0299 26.2749 16.5399 
109 2 24.6524 24.6524 14.9174 
110 2 26.2749 26.2749 16.5399 
111 2 27.8974 24.6524 14.9174 
112 2 29.5199 26.2749 16.5399 
113 2 31.1424 24.6524 14.9174 
114 2 32.7649 26.2749 16.5399 
115 2 34.3875 24.6524 14.9174 
116 2 36.01 26.2749 16.5399 
117 2 37.6325 24.6524 14.9174 
118 2 39.255 26.2749 16.5399 
119 2 40.8775 24.6524 14.9174 
120 2 42.5 26.2749 16.5399 
121 2 44.1225 24.6524 14.9174 
122 2 45.745 26.2749 16.5399 
123 2 47.3675 24.6524 14.9174 
124 2 48.99 26.2749 16.5399 
125 2 50.6125 24.6524 14.9174 
126 2 52.2351 26.2749 16.5399 
127 2 53.8576 24.6524 14.9174 
128 2 55.4801 26.2749 16.5399 
129 2 57.1026 24.6524 14.9174 
130 2 58.7251 26.2749 16.5399 
131 2 60.3476 24.6524 14.9174 
132 2 61.9701 26.2749 16.5399 
133 2 63.5926 24.6524 14.9174 
134 2 65.2151 26.2749 16.5399 
135 2 66.8376 24.6524 14.9174 
136 2 68.4601 26.2749 16.5399 
137 2 14.9174 27.8974 14.9174 
138 2 16.5399 29.5199 16.5399 
139 2 18.1624 27.8974 14.9174 
140 2 19.7849 29.5199 16.5399 
141 2 21.4074 27.8974 14.9174 
142 2 23.0299 29.5199 16.5399 
143 2 24.6524 27.8974 14.9174 
144 2 26.2749 29.5199 16.5399 
145 2 27.8974 27.8974 14.9174 
146 2 29.5199 29.5199 16.5399 
147 2 31.1424 27.8974 14.9174 
148 2 32.7649 29.5199 16.5399 
149 2 34.3875 27.8974 14.9174 
150 2 36.01 29.5199 16.5399 
151 2 37.6325 27.8974 14.9174 
152 2 39.255 29.5199 16.5399 
153 2 40.8775 27.8974 14.9174 
154 2 42.5 29.5199 16.5399 
155 2 44.1225 27.8974 14.9174 
156 2 45.745 29.5199 16.5399 
157 2 47.3675 27.8974 14.9174 
158 2 48.99 29.5199 16.5399 
159 2 50.6125 27.8974 14.9174 
160 2 52.2351 29.5199 16.5399 
161 2 53.8576 27.8974 14.9174 
162 2 55.4801 29.5199 16.5399 
163 2 57.1026 27.8974 14.9174 
164 2 58.7251 29.5199 16.5399 
165 2 60.3476 27.8974 14.9174 
166 2 61.9701 29.5199 16.5399 
167 2 63.5926 27.8974 14.9174 
168 2 65.2151 29.5199 16.5399 
169 2 66.8376 27.8974 14.9174 
170 2 68.4601 29.5199 16.5399 
171 2 14.9174 31.1424 14.9174 
172 2 16.5399 32.7649 16.5399 
173 2 18.1624 31.1424 14.9174 
174 2 19.7849 32.7649 16.5399 
175 2 21.4074 31.1424 14.9174 
176 2 23.0299 32.7649 16.5399 
177 2 24.6524 31.1424 14.9174 
178 2 26.2749 32.7649 16.5399 
179 2 27.8974 31.1424 14.9174 
180 2 29.5199 32.7649 16.5399 
181 2 31.1424 31.1424 14.9174 
182 2 32.7649 32.7649 16.5399 
183 2 34.3875 31.1424 14.9174 
184 2 36.01 32.7649 16.5399 
185 2 37.6325 31.1424 14.9174 
186 2 39.255 32.7649 16.5399 
187 2 40.8775 31.1424 14.9174 
188 2 42.5 32.7649 16.5399 
189 2 44.1225 31.1424 14.9174 
190 2 45.745 32.7649 16.5399 
191 2 47.3675 31.1424 14.9174 
192 2 48.99 32.7649 16.5399 
193 2 50.6125 31.1424 14.9174 
194 2 52.2351 32.7649 16.5399 
195 2 53.8576 31.1424 14.9174 
196 2 55.4801 32.7649 16.5399 
197 2 57.1026 31.1424 14.9174 
198 2 58.7251 32.7649 16.5399 
199 2 60.3476 31.1424 14.9174 
200 2 61.9701 32.7649 16.5399 
201 2 63.5926 31.1424 14.9174 
202 2 65.2151 32.7649 16.5399 
203 2 66.8376 31.1424 14.9174 
204 2 68.4601 32.7649 16.5399 
205 2 14.9174 34.3875 14.9174 
206 2 16.5399 36.01 16.5399 
207 2 18.1624 34.3875 14.9174 
208 2 19.7849 36.01 16.5399 
209 2 21.4074 34.3875 14.9174 
210 2 23.0299 36.01 16.5399 
211 2 24.6524 34.3875 14.9174 
212 2 26.2749 36.01 16.5399 
213 2 27.8974 34.3875 14.9174 
214 2 29.5199 36.01 16.5399 
215 2 31.1424 34.3875 14.9174 
216 2 32.7649 36.01 16.5399 
217 2 34.3875 34.3875 14.9174 
218 2 36.01 36.01 16.5399 
219 2 37.6325 34.3875 14.9174 
220 2 39.255 36.01 16.5399 
221 2 40.8775 34.3875 14.9174 
222 2 42.5 36.01 16.5399 
223 2 44.1225 34.3875 14.9174 
224 2 45.745 36.01 16.5399 
225 2 47.3675 34.3875 14.9174 
226 2 48.99 36.01 16.5399 
227 2 50.6125 34.3875 14.9174 
228 2 52.2351 36.01 16.5399 
229 2 53.8576 34.3875 14.9174 
230 2 55.4801 36.01 16.5399 
231 2 57.1026 34.3875 14.9174 
232 2 58.7251 36.01 16.5399 
233 2 60.3476 34.3875 14.9174 
234 2 61.9701 36.01 16.5399 
235 2 63.5926 34.3875 14.9174 
236 2 65.2151 36.01 16.5399 
237 2 66.8376 34.3875 14.9174 
238 2 68.4601 36.01 16.5399 
239 2 14.9174 37.6325 14.9174 
240 2 16.5399 39.255 16.5399 
241 2 18.1624 37.6325 14.9174 
242 2 19.7849 39.255 16.5399 
243 2 21.4074 37.6325 14.9174 
244 2 23.0299 39.255 16.5399 
245 2 24.6524 37.6325 14.9174 
246 2 26.2749 39.255 16.5399 
247 2 27.8974 37.6325 14.9174 
248 2 29.5199 39.255 16.5399 
249 2 31.1424 37.6325 14.9174 
250 2 32.7649 39.255 16.5399 
251 2 34.3875 37.6325 14.9174 
252 2 36.01 39.255 16.5399 
253 2 37.6325 37.6325 14.9174 
254 2 39.255 39.255 16.5399 
255 2 40.8775 37.6325 14.9174 
256 2 42.5 39.255 16.5399 
257 2 44.1225 37.6325 14.9174 
258 2 45.745 39.255 16.5399 
259 2 47.3675 37.6325 14.9174 
260 2 48.99 39.255 16.5399 
261 2 50.6125 37.6325 14.9174 
262 2 52.2351 39.255 16.5399 
263 2 53.8576 37.6325 14.9174 
264 2 55.4801 39.255 16.5399 
265 2 57.1026 37.6325 14.9174 
266 2 58.7251 39.255 16.5399 
267 2 60.3476 37.6325 14.9174 
268 2 61.9701 39.255 16.5399 
269 2 63.5926 37.6325 14.9174 
270 2 65.2151 39.255 16.5399 
271 2 66.8376 37.6325 14.9174 
272 2 68.4601 39.255 16.5399 
273 2 14.9174 40.8775 14.9174 
274 2 16.5399 42.5 16.5399 
275 2 18.1624 40.8775 14.9174 
276 2 19.7849 42.5 16.5399 
277 2 21.4074 40.8775 14.9174 
278 2 23.0299 42.5 16.5399 
279 2 24.6524 40.8775 14.9174 
280 2 26.2749 42.5 16.5399 
281 2 27.8974 40.8775 14.9174 
282 2 29.5199 42.5 16.5399 
283 2 31.1424 40.8775 14.9174 
284 2 32.7649 42.5 16.5399 
285 2 34.3875 40.8775 14.9174 
286 2 36.01 42.5 16.5399 
287 2 37.6325 40.8775 14.9174 
288 2 39.255 42.5 16.5399 
289 2 40.8775 40.8775 14.9174 
290 2 42.5 42.5 16.5399 
291 2 44.1225 40.8775 14.9174 
292 2 45.745 42.5 16.5399 
293 2 47.3675 40.8775 14.9174 
294 2 48.99 42.5 16.5399 
295 2 50.6125 40.8775 14.9174 
296 2 52.2351 42.5 16.5399 
297 2 53.8576 40.8775 14.9174 
298 2 55.4801 42.5 16.5399 
299 2 57.1026 40.8775 14.9174 
300 2 58.7251 42.5 16.5399 
301 2 60.3476 40.8775 14.9174 
302 2 61.9701 42.5 16.5399 
303 2 63.5926 40.8775 14.9174 
304 2 65.2151 42.5 16.5399 
305 2 66.8376 40.8775 14.9174 
306 2 68.4601 42.5 16.5399 
307 2 14.9174 44.1225 14.9174 
308 2 16.5399 45.745 16.5399 
309 2 18.1624 44.1225 14.9174 
310 2 19.7849 45.745 16.5399 
311 2 21.4074 44.1225 14.9174 
312 2 23.0299 45.745 16.5399 
313 2 24.6524 44.1225 14.9174 
314 2 26.2749 45.745 16.5399 
315 2 27.8974 44.1225 14.9174 
316 2 29.5199 45.745 16.5399 
317 2 31.1424 44.1225 14.9174 
318 2 32.7649 45.745 16.5399 
319 2 34.3875 44.1225 14.9174 
320 2 36.01 45.745 16.5399 
321 2 37.6325 44.1225 14.9174 
322 2 39.255 45.745 16.5399 
323 2 40.8775 44.1225 14.9174 
324 2 42.5 45.745 16.5399 
325 2 44.1225 44.1225 14.9174 
326 2 45.745 45.745 16.5399 
327 2 47.3675 44.1225 14.9174 
328 2 48.99 45.745 16.5399 
329 2 50.6125 44.1225 14.9174 
330 2 52.2351 45.745 16.5399 
331 2 53.8576 44.1225 14.9174 
332 2 55.4801 45.745 16.5399 
333 2 57.1026 44.1225 14.9174 
334 2 58.7251 45.745 16.5399 
335 2 60.3476 44.1225 14.9174 
336 2 61.9701 45.745 16.5399 
337 2 63.5926 44.1225 14.9174 
338 2 65.2151 45.745 16.5399 
339 2 66.8376 44.1225 14.9174 
340 2 68.4601 45.745 16.5399 
341 2 14.9174 47.3675 14.9174 
342 2 16.5399 48.99 16.5399 
343 2 18.1624 47.3675 14.9174 
344 2 19.7849 48.99 16.5399 
345 2 21.4074 47.3675 14.9174 
346 2 23.0299 48.99 16.5399 
347 2 24.6524 47.3675 14.9174 
348 2 26.2749 48.99 16.5399 
349 2 27.8974 47.3675 14.9174 
350 2 29.5199 48.99 16.5399 
351 2 31.1424 47.3675 14.9174 
352 2 32.7649 48.99 16.5399 
353 2 34.3875 47.3675 14.9174 
354 2 36.01 48.99 16.5399 
355 2 37.6325 47.3675 14.9174 
356 2 39.255 48.99 16.5399 
357 2 40.8775 47.3675 14.9174 
358 2 42.5 48.99 16.5399 
359 2 44.1225 47.3675 14.9174 
360 2 45.745 48.99 16.5399 
361 2 47.3675 47.3675 14.9174 
362 2 48.99 48.99 16.5399 
363 2 50.6125 47.3675 14.9174 
364 2 52.2351 48.99 16.5399 
365 2 53.8576 47.3675 14.9174 
366 2 55.4801 48.99 16.5399 
367 2 57.1026 47.3675 14.9174 
368 2 58.7251 48.99 16.5399 
369 2 60.3476 47.3675 14.9174 
370 2 61.9701 48.99 16.5399 
371 2 63.5926 47.3675 14.9174 
372 2 65.2151 48.99 16.5399 
373 2 66.8376 47.3675 14.9174 
374 2 68.4601 48.99 16.5399 
375 2 14.9174 50.6125 14.9174 
376 2 16.5399 52.2351 16.5399 
377 2 18.1624 50.6125 14.9174 
378 2 19.7849 52.2351 16.5399 
379 2 21.4074 50.6125 14.9174 
380 2 23.0299 52.2351 16.5399 
381 2 24.6524 50.6125 14.9174 
382 2 26.2749 52.2351 16.5399 
383 2 27.8974 50.6125 14.9174 
384 2 29.5199 52.2351 16.5399 
385 2 31.1424 50.6125 14.9174 
386 2 32.7649 52.2351 16.5399 
387 2 34.3875 50.6125 14.9174 
388 2 36.01 52.2351 16.5399 
389 2 37.6325 50.6125 14.9174 
390 2 39.255 52.2351 16.5399 
391 2 40.8775 50.6125 14.9174 
392 2 42.5 52.2351 16.5399 
393 2 44.1225 50.6125 14.9174 
394 2 45.745 52.2351 16.5399 
395 2 47.3675 50.6125 14.9174 
396 2 48.99 52.2351 16.5399 
397 2 50.6125 50.6125 14.9174 
398 2 52.2351 52.2351 16.5399 
399 2 53.8576 50.6125 14.9174 
400 2 55.4801 52.2351 16.5399 
401 2 57.1026 50.6125 14.9174 
402 2 58.7251 52.2351 16.5399 
403 2 60.3476 50.6125 14.9174 
404 2 61.9701 52.2351 16.5399 
405 2 63.5926 50.6125 14.9174 
406 2 65.2151 52.2351 16.5399 
407 2 66.8376 50.6125 14.9174 
408 2 68.4601 52.2351 16.5399 
409 2 14.9174 53.8576 14.9174 
410 2 16.5399 55.4801 16.5399 
411 2 18.1624 53.8576 14.9174 
412 2 19.7849 55.4801 16.5399 
413 2 21.4074 53.8576 14.9174 
414 2 23.0299 55.4801 16.5399 
415 2 24.6524 53.8576 14.9174 
416 2 26.2749 55.4801 16.5399 
417 2 27.8974 53.8576 14.9174 
418 2 29.5199 55.4801 16.5399 
419 2 31.1424 53.8576 14.9174 
420 2 32.7649 55.4801 16.5399 
421 2 34.3875 53.8576 14.9174 
422 2 36.01 55.4801 16.5399 
423 2 37.6325 53.8576 14.9174 
424 2 39.255 55.4801 16.5399 
425 2 40.8775 53.8576 14.9174 
426 2 42.5 55.4801 16.5399 
427 2 44.1225 53.8576 14.9174 
428 2 45.745 55.4801 16.5399 
429 2 47.3675 53.8576 14.9174 
430 2 48.99 55.4801 16.5399 
431 2 50.6125 53.8576 14.9174 
432 2 52.2351 55.4801 16.5399 
433 2 53.8576 53.8576 14.9174 
434 2 55.4801 55.4801 16.5399 
435 2 57.1026 53.8576 14.9174 
436 2 58.7251 55.4801 16.5399 
437 2 60.3476 53.8576 14.9174 
438 2 61.9701 55.4801 16.5399 
439 2 63.5926 53.8576 14.9174 
440 2 65.2151 55.4801 16.5399 
441 2 66.8376 53.8576 14.9174 
442 2 68.4601 55.4801 16.5399 
443 2 14.9174 57.1026 14.9174 
444 2 16.5399 58.7251 16.5399 
445 2 18.1624 57.1026 14.9174 
446 2 19.7849 58.7251 16.5399 
447 2 21.4074 57.1026 14.9174 
448 2 23.0299 58.7251 16.5399 
449 2 24.6524 57.1026 14.9174 
450 2 26.2749 58.7251 16.5399 
451 2 27.8974 57.1026 14.9174 
452 2 29.5199 58.7251 16.5399 
453 2 31.1424 57.1026 14.9174 
454 2 32.7649 58.7251 16.5399 
455 2 34.3875 57.1026 14.9174 
456 2 36.01 58.7251 16.5399 
457 2 37.6325 57.1026 14.9174 
458 2 39.255 58.7251 16.5399 
459 2 40.8775 57.1026 14.9174 
460 2 42.5 58.7251 16.5399 
461 2 44.1225 57.1026 14.9174 
462 2 45.745 58.7251 16.5399 
463 2 47.3675 57.1026 14.9174 
464 2 48.99 58.7251 16.5399 
465 2 50.6125 57.1026 14.9174 
466 2 52.2351 58.7251 16.5399 
467 2 53.8576 57.1026 14.9174 
468 2 55.4801 58.7251 16.5399 
469 2 57.1026 57.1026 14.9174 
470 2 58.7251 58.7251 16.5399 
471 2 60.3476 57.1026 14.9174 
472 2 61.9701 58.7251 16.5399 
473 2 63.5926 57.1026 14.9174 
474 2 65.2151 58.7251 16.5399 
475 2 66.8376 57.1026 14.9174 
476 2 68.4601 58.7251 16.5399 
477 2 14.9174 60.3476 14.9174 
478 2 16.5399 61.9701 16.5399 
479 2 18.1624 60.3476 14.9174 
480 2 19.7849 61.9701 16.5399 
481 2 21.4074 60.3476 14.9174 
482 2 23.0299 61.9701 16.5399 
483 2 24.6524 60.3476 14.9174 
484 2 26.2749 61.9701 16.5399 
485 2 27.8974 60.3476 14.9174 
486 2 29.5199 61.9701 16.5399 
487 2 31.1424 60.3476 14.9174 
488 2 32.7649 61.9701 16.5399 
489 2 34.3875 60.3476 14.9174 
490 2 36.01 61.9701 16.5399 
491 2 37.6325 60.3476 14.9174 
492 2 39.255 61.9701 16.5399 
493 2 40.8775 60.3476 14.9174 
494 2 42.5 61.9701 16.5399 
495 2 44.1225 60.3476 14.9174 
496 2 45.745 61.9701 16.5399 
497 2 47.3675 60.3476 14.9174 
498 2 48.99 61.9701 16.5399 
499 2 50.6125 60.3476 14.9174 
500 2 52.2351 61.9701 16.5399 
501 2 53.8576 60.3476 14.9174 
502 2 55.4801 61.9701 16.5399 
503 2 57.1026 60.3476 14.9174 
504 2 58.7251 61.9701 16.5399 
505 2 60.3476 60.3476 14.9174 
506 2 61.9701 61.9701 16.5399 
507 2 63.5926 60.3476 14.9174 
508 2 65.2151 61.9701 16.5399 
509 2 66.8376 60.3476 14.9174 
510 2 68.4601 61.9701 16.5399 
511 2 14.9174 63.5926 14.9174 
512 2 16.5399 65.2151 16.5399 
513 2 18.1624 63.5926 14.9174 
514 2 19.7849 65.2151 16.5399 
515 2 21.4074 63.5926 14.9174 
516 2 23.0299 65.2151 16.5399 
517 2 24.6524 63.5926 14.9174 
518 2 26.2749 65.2151 16.5399 
519 2 27.8974 63.5926 14.9174 
520 2 29.5199 65.2151 16.5399 
521 2 31.1424 63.5926 14.9174 
522 2 32.7649 65.2151 16.5399 
523 2 34.3875 63.5926 14.9174 
524 2 36.01 65.2151 16.5399 
525 2 37.6325 63.5926 14.9174 
526 2 39.255 65.2151 16.5399 
527 2 40.8775 63.5926 14.9174 
528 2 42.5 65.2151 16.5399 
529 2 44.1225 63.5926 14.9174 
530 2 45.745 65.2151 16.5399 
531 2 47.3675 63.5926 14.9174 
532 2 48.99 65.2151 16.5399 
533 2 50.6125 63.5926 14.9174 
534 2 52.2351 65.2151 16.5399 
535 2 53.8576 63.5926 14.9174 
536 2 55.4801 65.2151 16.5399 
537 2 57.1026 63.5926 14.9174 
538 2 58.7251 65.2151 16.5399 
539 2 60.3476 63.5926 14.9174 
540 2 61.9701 65.2151 16.5399 
541 2 63.5926 63.5926 14.9174 
542 2 65.2151 65.2151 16.5399 
543 2 66.8376 63.5926 14.9174 
544 2 68.4601 65.2151 16.5399 
545 2 14.9174 66.8376 14.9174 
546 2 16.5399 68.4601 16.5399 
547 2 18.1624 66.8376 14.9174 
548 2 19.7849 68.4601 16.5399 
549 2 21.4074 66.8376 14.9174 
550 2 23.0299 68.4601 16.5399 
551 2 24.6524 66.8376 14.9174 
552 2 26.2749 68.4601 16.5399 
553 2 27.8974 66.8376 14.9174 
554 2 29.5199 68.4601 16.5399 
555 2 31.1424 66.8376 14.9174 
556 2 32.7649 68.4601 16.5399 
557 2 34.3875 66.8376 14.9174 
558 2 36.01 68.4601 16.5399 
559 2 37.6325 66.8376 14.9174 
560 2 39.255 68.4601 16.5399 
561 2 40.8775 66.8376 14.9174 
562 2 42.5 68.4601 16.5399 
563 2 44.1225 66.8376 14.9174 
564 2 45.745 68.4601 16.5399 
565 2 47.3675 66.8376 14.9174 
566 2 48.99 68.4601 16.5399 
567 2 50.6125 66.8376 14.9174 
568 2 52.2351 68.4601 16.5399 
569 2 53.8576 66.8376 14.9174 
570 2 55.4801 68.4601 16.5399 
571 2 57.1026 66.8376 14.9174 
572 2 58.7251 68.4601 16.5399 
573 2 60.3476 66.8376 14.9174 
574 2 61.9701 68.4601 16.5399 
575 2 63.5926 66.8376 14.9174 
576 2 65.2151 68.4601 16.5399 
577 2 66.8376 66.8376 14.9174 
578 2 68.4601 68.4601 16.5399 
579 2 14.9174 14.9174 18.1624 
580 2 16.5399 16.5399 19.7849 
581 2 18.1624 14.9174 18.1624 
582 2 19.7849 16.5399 19.7849 
583 2 21.4074 14.9174 18.1624 
584 2 23.0299 16.5399 19.7849 
585 2 24.6524 14.9174 18.1624 
586 2 26.2749 16.5399 19.7849 
587 2 27.8974 14.9174 18.1624 
588 2 29.5199 16.5399 19.7849 
589 2 31.1424 14.9174 18.1624 
590 2 32.7649 16.5399 19.7849 
591 2 34.3875 14.9174 18.1624 
592 2 36.01 16.5399 19.7849 
593 2 37.6325 14.9174 18.1624 
594 2 39.255 16.5399 19.7849 
595 2 40.8775 14.9174 18.1624 
596 2 42.5 16.5399 19.7849 
597 2 44.1225 14.9174 18.1624 
598 2 45.745 16.5399 19.7849 
599 2 47.3675 14.9174 18.1624 
600 2 48.99 16.5399 19.7849 
601 2 50.6125 14.9174 18.1624 
602 2 52.2351 16.5399 19.7849 
603 2 53.8576 14.9174 18.1624 
604 2 55.4801 16.5399 19.7849 
605 2 57.1026 14.9174 18.1624 
606 2 58.7251 16.5399 19.7849 
607 2 60.3476 14.9174 18.1624 
608 2 61.9701 16.5399 19.7849 
609 2 63.5926 14.9174 18.1624 
610 2 65.2151 16.5399 19.7849 
611 2 66.8376 14.9174 18.1624 
612 2 68.4601 16.5399 19.7849 
613 2 14.9174 18.1624 18.1624 
614 2 16.5399 19.7849 19.7849 
615 2 18.1624 18.1624 18.1624 
616 2 19.7849 19.7849 19.7849 
617 2 21.4074 18.1624 18.1624 
618 2 23.0299 19.7849 19.7849 
619 2 24.6524 18.1624 18.1624 
620 2 26.2749 19.7849 19.7849 
621 2 27.8974 18.1624 18.1624 
622 2 29.5199 19.7849 19.7849 
623 2 31.1424 18.1624 18.1624 
624 2 32.7649 19.7849 19.7849 
625 2 34.3875 18.1624 18.1624 
626 2 36.01 19.7849 19.7849 
627 2 37.6325 18.1624 18.1624 
628 2 39.255 19.7849 19.7849 
629 2 40.8775 18.1624 18.1624 
630 2 42.5 19.7849 19.7849 
631 2 44.1225 18.1624 18.1624 
632 2 45.745 19.7849 19.7849 
633 2 47.3675 18.1624 18.1624 
634 2 48.99 19.7849 19.7849 
635 2 50.6125 18.1624 18.1624 
636 2 52.2351 19.7849 19.7849 
637 2 53.8576 18.1624 18.1624 
638 2 55.4801 19.7849 19.7849 
639 2 57.1026 18.1624 18.1624 
640 2 58.7251 19.7849 19.7849 
641 2 60.3476 18.1624 18.1624 
642 2 61.9701 19.7849 19.7849 
643 2 63.5926 18.1624 18.1624 
644 2 65.2151 19.7849 19.7849 
645 2 66.8376 18.1624 18.1624 
646 2 68.4601 19.7849 19.7849 
647 2 14.9174 21.4074 18.1624 
648 2 16.5399 23.0299 19.7849 
649 2 18.1624 21.4074 18.1624 
650 2 19.7849 23.0299 19.7849 
651 2 21.4074 21.4074 18.1624 
652 2 23.0299 23.0299 19.7849 
653 2 24.6524 21.4074 18.1624 
654 2 26.2749 23.0299 19.7849 
655 2 27.8974 21.4074 18.1624 
656 2 29.5199 23.0299 19.7849 
657 2 31.1424 21.4074 18.1624 
658 2 32.7649 23.0299 19.7849 
659 2 34.3875 21.4074 18.1624 
660 2 36.01 23.0299 19.7849 
661 2 37.6325 21.4074 18.1624 
662 2 39.255 23.0299 19.7849 
663 2 40.8775 21.4074 18.1624 
664 2 42.5 23.0299 19.7849 
665 2 44.1225 21.4074 18.1624 
666 2 45.745 23.0299 19.7849 
667 2 47.3675 21.4074 18.1624 
668 2 48.99 23.0299 19.7849 
669 2 50.6125 21.4074 18.1624 
670 2 52.2351 23.0299 19.7849 
671 2 53.8576 21.4074 18.1624 
672 2 55.4801 23.0299 19.7849 
673 2 57.1026 21.4074 18.1624 
674 2 58.7251 23.0299 19.7849 
675 2 60.3476 21.4074 18.1624 
676 2 61.9701 23.0299 19.7849 
677 2 63.5926 21.4074 18.1624 
678 2 65.2151 23.0299 19.7849 
679 2 66.8376 21.4074 18.1624 
680 2 68.4601 23.0299 19.7849 
681 2 14.9174 24.6524 18.1624 
682 2 16.5399 26.2749 19.7849 
683 2 18.1624 24.6524 18.1624 
684 2 19.7849 26.2749 19.7849 
685 2 21.4074 24.6524 18.1624 
686 2 23.0299 26.2749 19.7849 
687 2 24.6524 24.6524 18.1624 
688 2 26.2749 26.2749 19.7849 
689 2 27.8974 24.6524 18.1624 
690 2 29.5199 26.2749 19.7849 
691 2 31.1424 24.6524 18.1624 
692 2 32.7649 26.2749 19.7849 
693 2 34.3875 24.6524 18.1624 
694 2 36.01 26.2749 19.7849 
695 2 37.6325 24.6524 18.1624 
696 2 39.255 26.2749 19.7849 
697 2 40.8775 24.6524 18.1624 
698 2 42.5 26.2749 19.7849 
699 2 44.1225 24.6524 18.1624 
700 2 45.745 26.2749 19.7849 
701 2 47.3675 24.6524 18.1624 
702 2 48.99 26.2749 19.7849 
703 2 50.6125 24.6524 18.1624 
704 2 52.2351 26.2749 19.7849 
705 2 53.8576 24.6524 18.1624 
706 2 55.4801 26.2749 19.7849 
707 2 57.1026 24.6524 18.1624 
708 2 58.7251 26.2749 19.7849 
709 2 60.3476 24.6524 18.1624 
710 2 61.9701 26.2749 19.7849 
711 2 63.5926 24.6524 18.1624 
712 2 65.2151 26.2749 19.7849 
713 2 66.8376 24.6524 18.1624 
714 2 68.4601 26.2749 19.7849 
715 2 14.9174 27.8974 18.1624 
716 2 16.5399 29.5199 19.7849 
717 2 18.1624 27.8974 18.1624 
718 2 19.7849 29.5199 19.7849 
719 2 21.4074 27.8974 18.1624 
720 2 23.0299 29.5199 19.7849 
721 2 24.6524 27.8974 18.1624 
722 2 26.2749 29.5199 19.7849 
723 2 27.8974 27.8974 18.1624 
724 2 29.5199 29.5199 19.7849 
725 2 31.1424 27.8974 18.1624 
726 2 32.7649 29.5199 19.7849 
727 2 34.3875 27.8974 18.1624 
728 2 36.01 29.5199 19.7849 
729 2 37.6325 27.8974 18.1624 
730 2 39.255 29.5199 19.7849 
731 2 40.8775 27.8974 18.1624 
732 2 42.5 29.5199 19.7849 
733 2 44.1225 27.8974 18.1624 
734 2 45.745 29.5199 19.7849 
735 2 47.3675 27.8974 18.1624 
736 2 48.99 29.5199 19.7849 
737 2 50.6125 27.8974 18.1624 
738 2 52.2351 29.5199 19.7849 
739 2 53.8576 27.8974 18.1624 
740 2 55.4801 29.5199 19.7849 
741 2 57.1026 27.8974 18.1624 
742 2 58.7251 29.5199 19.7849 
743 2 60.3476 27.8974 18.1624 
744 2 61.9701 29.5199 19.7849 
745 2 63.5926 27.8974 18.1624 
746 2 65.2151 29.5199 19.7849 
747 2 66.8376 27.8974 18.1624 
748 2 68.4601 29.5199 19.7849 
749 2 14.9174 31.1424 18.1624 
750 2 16.5399 32.7649 19.7849 
751 2 18.1624 31.1424 18.1624 
752 2 19.7849 32.7649 19.7849 
753 2 21.4074 31.1424 18.1624 
754 2 23.0299 32.7649 19.7849 
755 2 24.6524 31.1424 18.1624 
756 2 26.2749 32.7649 19.7849 
757 2 27.8974 31.1424 18.1624 
758 2 29.5199 32.7649 19.7849 
759 2 31.1424 31.1424 18.1624 
760 2 32.7649 32.7649 19.7849 
761 2 34.3875 31.1424 18.1624 
762 2 36.01 32.7649 19.7849 
763 2 37.6325 31.1424 18.1624 
764 2 39.255 32.7649 19.7849 
765 2 40.8775 31.1424 18.1624 
766 2 42.5 32.7649 19.7849 
767 2 44.1225 31.1424 18.1624 
768 2 45.745 32.7649 19.7849 
769 2 47.3675 31.1424 18.1624 
770 2 48.99 32.7649 19.7849 
771 2 50.6125 31.1424 18.1624 
772 2 52.2351 32.7649 19.7849 
773 2 53.8576 31.1424 18.1624 
774 2 55.4801 32.7649 19.7849 
775 2 57.1026 31.1424 18.1624 
776 2 58.7251 32.7649 19.7849 
777 2 60.3476 31.1424 18.1624 
778 2 61.9701 32.7649 19.7849 
779 2 63.5926 31.1424 18.1624 
780 2 65.2151 32.7649 19.7849 
781 2 66.8376 31.1424 18.1624 
782 2 68.4601 32.7649 19.7849 
783 2 14.9174 34.3875 18.1624 
784 2 16.5399 36.01 19.7849 
785 2 18.1624 34.3875 18.1624 
786 2 19.7849 36.01 19.7849 
787 2 21.4074 34.3875 18.1624 
788 2 23.0299 36.01 19.7849 
789 2 24.6524 34.3875 18.1624 
790 2 26.2749 36.01 19.7849 
791 2 27.8974 34.3875 18.1624 
792 2 29.5199 36.01 19.7849 
793 2 31.1424 34.3875 18.1624 
794 2 32.7649 36.01 19.7849 
795 2 34.3875 34.3875 18.1624 
796 2 36.01 36.01 19.7849 
797 2 37.6325 34.3875 18.1624 
798 2 39.255 36.01 19.7849 
799 2 40.8775 34.3875 18.1624 
800 2 42.5 36.01 19.7849 
801 2 44.1225 34.3875 18.1624 
802 2 45.745 36.01 19.7849 
803 2 47.3675 34.3875 18.1624 
804 2 48.99 36.01 19.7849 
805 2 50.6125 34.3875 18.1624 
806 2 52.2351 36.01 19.7849 
807 2 53.8576 34.3875 18.1624 
808 2 55.4801 36.01 19.7849 
809 2 57.1026 34.3875 18.1624 
810 2 58.7251 36.01 19.7849 
811 2 60.3476 34.3875 18.1624 
812 2 61.9701 36.01 19.7849 
813 2 63.5926 34.3875 18.1624 
814 2 65.2151 36.01 19.7849 
815 2 66.8376 34.3875 18.1624 
816 2 68.4601 36.01 19.7849 
817 2 14.9174 37.6325 18.1624 
818 2 16.5399 39.255 19.7849 
819 2 18.1624 37.6325 18.1624 
820 2 19.7849 39.255 19.7849 
821 2 21.4074 37.6325 18.1624 
822 2 23.0299 39.255 19.7849 
823 2 24.6524 37.6325 18.1624 
824 2 26.2749 39.255 19.7849 
825 2 27.8974 37.6325 18.1624 
826 2 29.5199 39.255 19.7849 
827 2 31.1424 37.6325 18.1624 
828 2 32.7649 39.255 19.7849 
829 2 34.3875 37.6325 18.1624 
830 2 36.01 39.255 19.7849 
831 2 37.6325 37.6325 18.1624 
832 2 39.255 39.255 19.7849 
833 2 40.8775 37.6325 18.1624 
834 2 42.5 39.255 19.7849 
835 2 44.1225 37.6325 18.1624 
836 2 45.745 39.255 19.7849 
837 2 47.3675 37.6325 18.1624 
838 2 48.99 39.255 19.7849 
839 2 50.6125 37.6325 18.1624 
840 2 52.2351 39.255 19.7849 
841 2 53.8576 37.6325 18.1624 
842 2 55.4801 39.255 19.7849 
843 2 57.1026 37.6325 18.1624 
844 2 58.7251 39.255 19.7849 
845 2 60.3476 37.6325 18.1624 
846 2 61.9701 39.255 19.7849 
847 2 63.5926 37.6325 18.1624 
848 2 65.2151 39.255 19.7849 
849 2 66.8376 37.6325 18.1624 
850 2 68.4601 39.255 19.7849 
851 2 14.9174 40.8775 18.1624 
852 2 16.5399 42.5 19.7849 
853 2 18.1624 40.8775 18.1624 
854 2 19.7849 42.5 19.7849 
855 2 21.4074 40.8775 18.1624 
856 2 23.0299 42.5 19.7849 
857 2 24.6524 40.8775 18.1624 
858 2 26.2749 42.5 19.7849 
859 2 27.8974 40.8775 18.1624 
860 2 29.5199 42.5 19.7849 
861 2 31.1424 40.8775 18.1624 
862 2 32.7649 42.5 19.7849 
863 2 34.3875 40.8775 18.1624 
864 2 36.01 42.5 19.7849 
865 2 37.6325 40.8775 18.1624 
866 2 39.255 42.5 19.7849 
867 2 40.8775 40.8775 18.1624 
868 2 42.5 42.5 19.7849 
869 2 44.1225 40.8775 18.1624 
870 2 45.745 42.5 19.7849 
871 2 47.3675 40.8775 18.1624 
872 2 48.99 42.5 19.7849 
873 2 50.6125 40.8775 18.1624 
874 2 52.2351 42.5 19.7849 
875 2 53.8576 40.8775 18.1624 
876 2 55.4801 42.5 19.7849 
877 2 57.1026 40.8775 18.1624 
878 2 58.7251 42.5 19.7849 
879 2 60.3476 40.8775 18.1624 
880 2 61.9701 42.5 19.7849 
881 2 63.5926 40.8775 18.1624 
882 2 65.2151 42.5 19.7849 
883 2 66.8376 40.8775 18.1624 
884 2 68.4601 42.5 19.7849 
885 2 14.9174 44.1225 18.1624 
886 2 16.5399 45.745 19.7849 
887 2 18.1624 44.1225 18.1624 
888 2 19.7849 45.745 19.7849 
889 2 21.4074 44.1225 18.1624 
890 2 23.0299 45.745 19.7849 
891 2 24.6524 44.1225 18.1624 
892 2 26.2749 45.745 19.7849 
893 2 27.8974 44.1225 18.1624 
894 2 29.5199 45.745 19.7849 
895 2 31.1424 44.1225 18.1624 
896 2 32.7649 45.745 19.7849 
897 2 34.3875 44.1225 18.1624 
898 2 36.01 45.745 19.7849 
899 2 37.6325 44.1225 18.1624 
900 2 39.255 45.745 19.7849 
901 2 40.8775 44.1225 18.1624 
902 2 42.5 45.745 19.7849 
903 2 44.1225 44.1225 18.1624 
904 2 45.745 45.745 19.7849 
905 2 47.3675 44.1225 18.1624 
906 2 48.99 45.745 19.7849 
907 2 50.6125 44.1225 18.1624 
908 2 52.2351 45.745 19.7849 
909 2 53.8576 44.1225 18.1624 
910 2 55.4801 45.745 19.7849 
911 2 57.1026 44.1225 18.1624 
912 2 58.7251 45.745 19.7849 
913 2 60.3476 44.1225 18.1624 
914 2 61.9701 45.745 19.7849 
915 2 63.5926 44.1225 18.1624 
916 2 65.2151 45.745 19.7849 
917 2 66.8376 44.1225 18.1624 
918 2 68.4601 45.745 19.7849 
919 2 14.9174 47.3675 18.1624 
920 2 16.5399 48.99 19.7849 
921 2 18.1624 47.3675 18.1624 
922 2 19.7849 48.99 19.7849 
923 2 21.4074 47.3675 18.1624 
924 2 23.0299 48.99 19.7849 
925 2 24.6524 47.3675 18.1624 
926 2 26.2749 48.99 19.7849 
927 2 27.8974 47.3675 18.1624 
928 2 29.5199 48.99 19.7849 
929 2 31.1424 47.3675 18.1624 
930 2 32.7649 48.99 19.7849 
931 2 34.3875 47.3675 18.1624 
932 2 36.01 48.99 19.7849 
933 2 37.6325 47.3675 18.1624 
934 2 39.255 48.99 19.7849 
935 2 40.8775 47.3675 18.1624 
936 2 42.5 48.99 19.7849 
937 2 44.1225 47.3675 18.1624 
938 2 45.745 48.99 19.7849 
939 2 47.3675 47.3675 18.1624 
940 2 48.99 48.99 19.7849 
941 2 50.6125 47.3675 18.1624 
942 2 52.2351 48.99 19.7849 
943 2 53.8576 47.3675 18.1624 
944 2 55.4801 48.99 19.7849 
945 2 57.1026 47.3675 18.1624 
946 2 58.7251 48.99 19.7849 
947 2 60.3476 47.3675 18.1624 
948 2 61.9701 48.99 19.7849 
949 2 63.5926 47.3675 18.1624 
950 2 65.2151 48.99 19.7849 
951 2 66.8376 47.3675 18.1624 
952 2 68.4601 48.99 19.7849 
953 2 14.9174 50.6125 18.1624 
954 2 16.5399 52.2351 19.7849 
955 2 18.1624 50.6125 18.1624 
956 2 19.7849 52.2351 19.7849 
957 2 21.4074 50.6125 18.1624 
958 2 23.0299 52.2351 19.7849 
959 2 24.6524 50.6125 18.1624 
960 2 26.2749 52.2351 19.7849 
961 2 27.8974 50.6125 18.1624 
962 2 29.5199 52.2351 19.7849 
963 2 31.1424 50.6125 18.1624 
964 2 32.7649 52.2351 19.7849 
965 2 34.3875 50.6125 18.1624 
966 2 36.01 52.2351 19.7849 
967 2 37.6325 50.6125 18.1624 
968 2 39.255 52.2351 19.7849 
969 2 40.8775 50.6125 18.1624 
970 2 42.5 52.2351 19.7849 
971 2 44.1225 50.6125 18.1624 
972 2 45.745 52.2351 19.7849 
973 2 47.3675 50.6125 18.1624 
974 2 48.99 52.2351 19.7849 
975 2 50.6125 50.6125 18.1624 
976 2 52.2351 52.2351 19.7849 
977 2 53.8576 50.6125 18.1624 
978 2 55.4801 52.2351 19.7849 
979 2 57.1026 50.6125 18.1624 
980 2 58.7251 52.2351 19.7849 
981 2 60.3476 50.6125 18.1624 