ITEM: TIMESTEP
76
ITEM: NUMBER OF ATOMS
9826
ITEM: BOX BOUNDS pp pp pp
1.5424330183253192e+01 6.9575669816746441e+01
1.5424330183253192e+01 6.9575669816746441e+01
1.5424330183253192e+01 6.9575669816746441e+01
ITEM: ATOMS id type xu yu zu 
1 1 15.4243 15.4243 15.4243 
2 1 17.017 17.017 17.017 
3 1 18.6097 15.4243 15.4243 
4 1 20.2024 17.017 17.017 
5 1 21.7951 15.4243 15.4243 
6 1 23.3878 17.017 17.017 
7 1 24.9804 15.4243 15.4243 
8 1 26.5731 17.017 17.017 
9 1 28.1658 15.4243 15.4243 
10 1 29.7585 17.017 17.017 
11 1 31.3512 15.4243 15.4243 
12 1 32.9439 17.017 17.017 
13 1 34.5366 15.4243 15.4243 
14 1 36.1293 17.017 17.017 
15 1 37.7219 15.4243 15.4243 
16 1 39.3146 17.017 17.017 
17 1 40.9073 15.4243 15.4243 
18 1 42.5 17.017 17.017 
19 1 44.0927 15.4243 15.4243 
20 1 45.6854 17.017 17.017 
21 1 47.2781 15.4243 15.4243 
22 1 48.8707 17.017 17.017 
23 1 50.4634 15.4243 15.4243 
24 1 52.0561 17.017 17.017 
25 1 53.6488 15.4243 15.4243 
26 1 55.2415 17.017 17.017 
27 1 56.8342 15.4243 15.4243 
28 1 58.4269 17.017 17.017 
29 1 60.0196 15.4243 15.4243 
30 1 61.6122 17.017 17.017 
31 1 63.2049 15.4243 15.4243 
32 1 64.7976 17.017 17.017 
33 1 66.3903 15.4243 15.4243 
34 1 67.983 17.017 17.017 
35 1 15.4243 18.6097 15.4243 
36 1 17.017 20.2024 17.017 
37 1 18.6097 18.6097 15.4243 
38 1 20.2024 20.2024 17.017 
39 1 21.7951 18.6097 15.4243 
40 1 23.3878 20.2024 17.017 
41 1 24.9804 18.6097 15.4243 
42 1 26.5731 20.2024 17.017 
43 1 28.1658 18.6097 15.4243 
44 1 29.7585 20.2024 17.017 
45 1 31.3512 18.6097 15.4243 
46 1 32.9439 20.2024 17.017 
47 1 34.5366 18.6097 15.4243 
48 1 36.1293 20.2024 17.017 
49 1 37.7219 18.6097 15.4243 
50 1 39.3146 20.2024 17.017 
51 1 40.9073 18.6097 15.4243 
52 1 42.5 20.2024 17.017 
53 1 44.0927 18.6097 15.4243 
54 1 45.6854 20.2024 17.017 
55 1 47.2781 18.6097 15.4243 
56 1 48.8707 20.2024 17.017 
57 1 50.4634 18.6097 15.4243 
58 1 52.0561 20.2024 17.017 
59 1 53.6488 18.6097 15.4243 
60 1 55.2415 20.2024 17.017 
61 1 56.8342 18.6097 15.4243 
62 1 58.4269 20.2024 17.017 
63 1 60.0196 18.6097 15.4243 
64 1 61.6122 20.2024 17.017 
65 1 63.2049 18.6097 15.4243 
66 1 64.7976 20.2024 17.017 
67 1 66.3903 18.6097 15.4243 
68 1 67.983 20.2024 17.017 
69 1 15.4243 21.7951 15.4243 
70 1 17.017 23.3878 17.017 
71 1 18.6097 21.7951 15.4243 
72 1 20.2024 23.3878 17.017 
73 1 21.7951 21.7951 15.4243 
74 1 23.3878 23.3878 17.017 
75 1 24.9804 21.7951 15.4243 
76 1 26.5731 23.3878 17.017 
77 1 28.1658 21.7951 15.4243 
78 1 29.7585 23.3878 17.017 
79 1 31.3512 21.7951 15.4243 
80 1 32.9439 23.3878 17.017 
81 1 34.5366 21.7951 15.4243 
82 1 36.1293 23.3878 17.017 
83 1 37.7219 21.7951 15.4243 
84 1 39.3146 23.3878 17.017 
85 1 40.9073 21.7951 15.4243 
86 1 42.5 23.3878 17.017 
87 1 44.0927 21.7951 15.4243 
88 1 45.6854 23.3878 17.017 
89 1 47.2781 21.7951 15.4243 
90 1 48.8707 23.3878 17.017 
91 1 50.4634 21.7951 15.4243 
92 1 52.0561 23.3878 17.017 
93 1 53.6488 21.7951 15.4243 
94 1 55.2415 23.3878 17.017 
95 1 56.8342 21.7951 15.4243 
96 1 58.4269 23.3878 17.017 
97 1 60.0196 21.7951 15.4243 
98 1 61.6122 23.3878 17.017 
99 1 63.2049 21.7951 15.4243 
100 1 64.7976 23.3878 17.017 
101 1 66.3903 21.7951 15.4243 
102 1 67.983 23.3878 17.017 
103 1 15.4243 24.9804 15.4243 
104 1 17.017 26.5731 17.017 
105 1 18.6097 24.9804 15.4243 
106 1 20.2024 26.5731 17.017 
107 1 21.7951 24.9804 15.4243 
108 1 23.3878 26.5731 17.017 
109 1 24.9804 24.9804 15.4243 
110 1 26.5731 26.5731 17.017 
111 1 28.1658 24.9804 15.4243 
112 1 29.7585 26.5731 17.017 
113 1 31.3512 24.9804 15.4243 
114 1 32.9439 26.5731 17.017 
115 1 34.5366 24.9804 15.4243 
116 1 36.1293 26.5731 17.017 
117 1 37.7219 24.9804 15.4243 
118 1 39.3146 26.5731 17.017 
119 1 40.9073 24.9804 15.4243 
120 1 42.5 26.5731 17.017 
121 1 44.0927 24.9804 15.4243 
122 1 45.6854 26.5731 17.017 
123 1 47.2781 24.9804 15.4243 
124 1 48.8707 26.5731 17.017 
125 1 50.4634 24.9804 15.4243 
126 1 52.0561 26.5731 17.017 
127 1 53.6488 24.9804 15.4243 
128 1 55.2415 26.5731 17.017 
129 1 56.8342 24.9804 15.4243 
130 1 58.4269 26.5731 17.017 
131 1 60.0196 24.9804 15.4243 
132 1 61.6122 26.5731 17.017 
133 1 63.2049 24.9804 15.4243 
134 1 64.7976 26.5731 17.017 
135 1 66.3903 24.9804 15.4243 
136 1 67.983 26.5731 17.017 
137 1 15.4243 28.1658 15.4243 
138 1 17.017 29.7585 17.017 
139 1 18.6097 28.1658 15.4243 
140 1 20.2024 29.7585 17.017 
141 1 21.7951 28.1658 15.4243 
142 1 23.3878 29.7585 17.017 
143 1 24.9804 28.1658 15.4243 
144 1 26.5731 29.7585 17.017 
145 1 28.1658 28.1658 15.4243 
146 1 29.7585 29.7585 17.017 
147 1 31.3512 28.1658 15.4243 
148 1 32.9439 29.7585 17.017 
149 1 34.5366 28.1658 15.4243 
150 1 36.1293 29.7585 17.017 
151 1 37.7219 28.1658 15.4243 
152 1 39.3146 29.7585 17.017 
153 1 40.9073 28.1658 15.4243 
154 1 42.5 29.7585 17.017 
155 1 44.0927 28.1658 15.4243 
156 1 45.6854 29.7585 17.017 
157 1 47.2781 28.1658 15.4243 
158 1 48.8707 29.7585 17.017 
159 1 50.4634 28.1658 15.4243 
160 1 52.0561 29.7585 17.017 
161 1 53.6488 28.1658 15.4243 
162 1 55.2415 29.7585 17.017 
163 1 56.8342 28.1658 15.4243 
164 1 58.4269 29.7585 17.017 
165 1 60.0196 28.1658 15.4243 
166 1 61.6122 29.7585 17.017 
167 1 63.2049 28.1658 15.4243 
168 1 64.7976 29.7585 17.017 
169 1 66.3903 28.1658 15.4243 
170 1 67.983 29.7585 17.017 
171 1 15.4243 31.3512 15.4243 
172 1 17.017 32.9439 17.017 
173 1 18.6097 31.3512 15.4243 
174 1 20.2024 32.9439 17.017 
175 1 21.7951 31.3512 15.4243 
176 1 23.3878 32.9439 17.017 
177 1 24.9804 31.3512 15.4243 
178 1 26.5731 32.9439 17.017 
179 1 28.1658 31.3512 15.4243 
180 1 29.7585 32.9439 17.017 
181 1 31.3512 31.3512 15.4243 
182 1 32.9439 32.9439 17.017 
183 1 34.5366 31.3512 15.4243 
184 1 36.1293 32.9439 17.017 
185 1 37.7219 31.3512 15.4243 
186 1 39.3146 32.9439 17.017 
187 1 40.9073 31.3512 15.4243 
188 1 42.5 32.9439 17.017 
189 1 44.0927 31.3512 15.4243 
190 1 45.6854 32.9439 17.017 
191 1 47.2781 31.3512 15.4243 
192 1 48.8707 32.9439 17.017 
193 1 50.4634 31.3512 15.4243 
194 1 52.0561 32.9439 17.017 
195 1 53.6488 31.3512 15.4243 
196 1 55.2415 32.9439 17.017 
197 1 56.8342 31.3512 15.4243 
198 1 58.4269 32.9439 17.017 
199 1 60.0196 31.3512 15.4243 
200 1 61.6122 32.9439 17.017 
201 1 63.2049 31.3512 15.4243 
202 1 64.7976 32.9439 17.017 
203 1 66.3903 31.3512 15.4243 
204 1 67.983 32.9439 17.017 
205 1 15.4243 34.5366 15.4243 
206 1 17.017 36.1293 17.017 
207 1 18.6097 34.5366 15.4243 
208 1 20.2024 36.1293 17.017 
209 1 21.7951 34.5366 15.4243 
210 1 23.3878 36.1293 17.017 
211 1 24.9804 34.5366 15.4243 
212 1 26.5731 36.1293 17.017 
213 1 28.1658 34.5366 15.4243 
214 1 29.7585 36.1293 17.017 
215 1 31.3512 34.5366 15.4243 
216 1 32.9439 36.1293 17.017 
217 1 34.5366 34.5366 15.4243 
218 1 36.1293 36.1293 17.017 
219 1 37.7219 34.5366 15.4243 
220 1 39.3146 36.1293 17.017 
221 1 40.9073 34.5366 15.4243 
222 1 42.5 36.1293 17.017 
223 1 44.0927 34.5366 15.4243 
224 1 45.6854 36.1293 17.017 
225 1 47.2781 34.5366 15.4243 
226 1 48.8707 36.1293 17.017 
227 1 50.4634 34.5366 15.4243 
228 1 52.0561 36.1293 17.017 
229 1 53.6488 34.5366 15.4243 
230 1 55.2415 36.1293 17.017 
231 1 56.8342 34.5366 15.4243 
232 1 58.4269 36.1293 17.017 
233 1 60.0196 34.5366 15.4243 
234 1 61.6122 36.1293 17.017 
235 1 63.2049 34.5366 15.4243 
236 1 64.7976 36.1293 17.017 
237 1 66.3903 34.5366 15.4243 
238 1 67.983 36.1293 17.017 
239 1 15.4243 37.7219 15.4243 
240 1 17.017 39.3146 17.017 
241 1 18.6097 37.7219 15.4243 
242 1 20.2024 39.3146 17.017 
243 1 21.7951 37.7219 15.4243 
244 1 23.3878 39.3146 17.017 
245 1 24.9804 37.7219 15.4243 
246 1 26.5731 39.3146 17.017 
247 1 28.1658 37.7219 15.4243 
248 1 29.7585 39.3146 17.017 
249 1 31.3512 37.7219 15.4243 
250 1 32.9439 39.3146 17.017 
251 1 34.5366 37.7219 15.4243 
252 1 36.1293 39.3146 17.017 
253 1 37.7219 37.7219 15.4243 
254 1 39.3146 39.3146 17.017 
255 1 40.9073 37.7219 15.4243 
256 1 42.5 39.3146 17.017 
257 1 44.0927 37.7219 15.4243 
258 1 45.6854 39.3146 17.017 
259 1 47.2781 37.7219 15.4243 
260 1 48.8707 39.3146 17.017 
261 1 50.4634 37.7219 15.4243 
262 1 52.0561 39.3146 17.017 
263 1 53.6488 37.7219 15.4243 
264 1 55.2415 39.3146 17.017 
265 1 56.8342 37.7219 15.4243 
266 1 58.4269 39.3146 17.017 
267 1 60.0196 37.7219 15.4243 
268 1 61.6122 39.3146 17.017 
269 1 63.2049 37.7219 15.4243 
270 1 64.7976 39.3146 17.017 
271 1 66.3903 37.7219 15.4243 
272 1 67.983 39.3146 17.017 
273 1 15.4243 40.9073 15.4243 
274 1 17.017 42.5 17.017 
275 1 18.6097 40.9073 15.4243 
276 1 20.2024 42.5 17.017 
277 1 21.7951 40.9073 15.4243 
278 1 23.3878 42.5 17.017 
279 1 24.9804 40.9073 15.4243 
280 1 26.5731 42.5 17.017 
281 1 28.1658 40.9073 15.4243 
282 1 29.7585 42.5 17.017 
283 1 31.3512 40.9073 15.4243 
284 1 32.9439 42.5 17.017 
285 1 34.5366 40.9073 15.4243 
286 1 36.1293 42.5 17.017 
287 1 37.7219 40.9073 15.4243 
288 1 39.3146 42.5 17.017 
289 1 40.9073 40.9073 15.4243 
290 1 42.5 42.5 17.017 
291 1 44.0927 40.9073 15.4243 
292 1 45.6854 42.5 17.017 
293 1 47.2781 40.9073 15.4243 
294 1 48.8707 42.5 17.017 
295 1 50.4634 40.9073 15.4243 
296 1 52.0561 42.5 17.017 
297 1 53.6488 40.9073 15.4243 
298 1 55.2415 42.5 17.017 
299 1 56.8342 40.9073 15.4243 
300 1 58.4269 42.5 17.017 
301 1 60.0196 40.9073 15.4243 
302 1 61.6122 42.5 17.017 
303 1 63.2049 40.9073 15.4243 
304 1 64.7976 42.5 17.017 
305 1 66.3903 40.9073 15.4243 
306 1 67.983 42.5 17.017 
307 1 15.4243 44.0927 15.4243 
308 1 17.017 45.6854 17.017 
309 1 18.6097 44.0927 15.4243 
310 1 20.2024 45.6854 17.017 
311 1 21.7951 44.0927 15.4243 
312 1 23.3878 45.6854 17.017 
313 1 24.9804 44.0927 15.4243 
314 1 26.5731 45.6854 17.017 
315 1 28.1658 44.0927 15.4243 
316 1 29.7585 45.6854 17.017 
317 1 31.3512 44.0927 15.4243 
318 1 32.9439 45.6854 17.017 
319 1 34.5366 44.0927 15.4243 
320 1 36.1293 45.6854 17.017 
321 1 37.7219 44.0927 15.4243 
322 1 39.3146 45.6854 17.017 
323 1 40.9073 44.0927 15.4243 
324 1 42.5 45.6854 17.017 
325 1 44.0927 44.0927 15.4243 
326 1 45.6854 45.6854 17.017 
327 1 47.2781 44.0927 15.4243 
328 1 48.8707 45.6854 17.017 
329 1 50.4634 44.0927 15.4243 
330 1 52.0561 45.6854 17.017 
331 1 53.6488 44.0927 15.4243 
332 1 55.2415 45.6854 17.017 
333 1 56.8342 44.0927 15.4243 
334 1 58.4269 45.6854 17.017 
335 1 60.0196 44.0927 15.4243 
336 1 61.6122 45.6854 17.017 
337 1 63.2049 44.0927 15.4243 
338 1 64.7976 45.6854 17.017 
339 1 66.3903 44.0927 15.4243 
340 1 67.983 45.6854 17.017 
341 1 15.4243 47.2781 15.4243 
342 1 17.017 48.8707 17.017 
343 1 18.6097 47.2781 15.4243 
344 1 20.2024 48.8707 17.017 
345 1 21.7951 47.2781 15.4243 
346 1 23.3878 48.8707 17.017 
347 1 24.9804 47.2781 15.4243 
348 1 26.5731 48.8707 17.017 
349 1 28.1658 47.2781 15.4243 
350 1 29.7585 48.8707 17.017 
351 1 31.3512 47.2781 15.4243 
352 1 32.9439 48.8707 17.017 
353 1 34.5366 47.2781 15.4243 
354 1 36.1293 48.8707 17.017 
355 1 37.7219 47.2781 15.4243 
356 1 39.3146 48.8707 17.017 
357 1 40.9073 47.2781 15.4243 
358 1 42.5 48.8707 17.017 
359 1 44.0927 47.2781 15.4243 
360 1 45.6854 48.8707 17.017 
361 1 47.2781 47.2781 15.4243 
362 1 48.8707 48.8707 17.017 
363 1 50.4634 47.2781 15.4243 
364 1 52.0561 48.8707 17.017 
365 1 53.6488 47.2781 15.4243 
366 1 55.2415 48.8707 17.017 
367 1 56.8342 47.2781 15.4243 
368 1 58.4269 48.8707 17.017 
369 1 60.0196 47.2781 15.4243 
370 1 61.6122 48.8707 17.017 
371 1 63.2049 47.2781 15.4243 
372 1 64.7976 48.8707 17.017 
373 1 66.3903 47.2781 15.4243 
374 1 67.983 48.8707 17.017 
375 1 15.4243 50.4634 15.4243 
376 1 17.017 52.0561 17.017 
377 1 18.6097 50.4634 15.4243 
378 1 20.2024 52.0561 17.017 
379 1 21.7951 50.4634 15.4243 
380 1 23.3878 52.0561 17.017 
381 1 24.9804 50.4634 15.4243 
382 1 26.5731 52.0561 17.017 
383 1 28.1658 50.4634 15.4243 
384 1 29.7585 52.0561 17.017 
385 1 31.3512 50.4634 15.4243 
386 1 32.9439 52.0561 17.017 
387 1 34.5366 50.4634 15.4243 
388 1 36.1293 52.0561 17.017 
389 1 37.7219 50.4634 15.4243 
390 1 39.3146 52.0561 17.017 
391 1 40.9073 50.4634 15.4243 
392 1 42.5 52.0561 17.017 
393 1 44.0927 50.4634 15.4243 
394 1 45.6854 52.0561 17.017 
395 1 47.2781 50.4634 15.4243 
396 1 48.8707 52.0561 17.017 
397 1 50.4634 50.4634 15.4243 
398 1 52.0561 52.0561 17.017 
399 1 53.6488 50.4634 15.4243 
400 1 55.2415 52.0561 17.017 
401 1 56.8342 50.4634 15.4243 
402 1 58.4269 52.0561 17.017 
403 1 60.0196 50.4634 15.4243 
404 1 61.6122 52.0561 17.017 
405 1 63.2049 50.4634 15.4243 
406 1 64.7976 52.0561 17.017 
407 1 66.3903 50.4634 15.4243 
408 1 67.983 52.0561 17.017 
409 1 15.4243 53.6488 15.4243 
410 1 17.017 55.2415 17.017 
411 1 18.6097 53.6488 15.4243 
412 1 20.2024 55.2415 17.017 
413 1 21.7951 53.6488 15.4243 
414 1 23.3878 55.2415 17.017 
415 1 24.9804 53.6488 15.4243 
416 1 26.5731 55.2415 17.017 
417 1 28.1658 53.6488 15.4243 
418 1 29.7585 55.2415 17.017 
419 1 31.3512 53.6488 15.4243 
420 1 32.9439 55.2415 17.017 
421 1 34.5366 53.6488 15.4243 
422 1 36.1293 55.2415 17.017 
423 1 37.7219 53.6488 15.4243 
424 1 39.3146 55.2415 17.017 
425 1 40.9073 53.6488 15.4243 
426 1 42.5 55.2415 17.017 
427 1 44.0927 53.6488 15.4243 
428 1 45.6854 55.2415 17.017 
429 1 47.2781 53.6488 15.4243 
430 1 48.8707 55.2415 17.017 
431 1 50.4634 53.6488 15.4243 
432 1 52.0561 55.2415 17.017 
433 1 53.6488 53.6488 15.4243 
434 1 55.2415 55.2415 17.017 
435 1 56.8342 53.6488 15.4243 
436 1 58.4269 55.2415 17.017 
437 1 60.0196 53.6488 15.4243 
438 1 61.6122 55.2415 17.017 
439 1 63.2049 53.6488 15.4243 
440 1 64.7976 55.2415 17.017 
441 1 66.3903 53.6488 15.4243 
442 1 67.983 55.2415 17.017 
443 1 15.4243 56.8342 15.4243 
444 1 17.017 58.4269 17.017 
445 1 18.6097 56.8342 15.4243 
446 1 20.2024 58.4269 17.017 
447 1 21.7951 56.8342 15.4243 
448 1 23.3878 58.4269 17.017 
449 1 24.9804 56.8342 15.4243 
450 1 26.5731 58.4269 17.017 
451 1 28.1658 56.8342 15.4243 
452 1 29.7585 58.4269 17.017 
453 1 31.3512 56.8342 15.4243 
454 1 32.9439 58.4269 17.017 
455 1 34.5366 56.8342 15.4243 
456 1 36.1293 58.4269 17.017 
457 1 37.7219 56.8342 15.4243 
458 1 39.3146 58.4269 17.017 
459 1 40.9073 56.8342 15.4243 
460 1 42.5 58.4269 17.017 
461 1 44.0927 56.8342 15.4243 
462 1 45.6854 58.4269 17.017 
463 1 47.2781 56.8342 15.4243 
464 1 48.8707 58.4269 17.017 
465 1 50.4634 56.8342 15.4243 
466 1 52.0561 58.4269 17.017 
467 1 53.6488 56.8342 15.4243 
468 1 55.2415 58.4269 17.017 
469 1 56.8342 56.8342 15.4243 
470 1 58.4269 58.4269 17.017 
471 1 60.0196 56.8342 15.4243 
472 1 61.6122 58.4269 17.017 
473 1 63.2049 56.8342 15.4243 
474 1 64.7976 58.4269 17.017 
475 1 66.3903 56.8342 15.4243 
476 1 67.983 58.4269 17.017 
477 1 15.4243 60.0196 15.4243 
478 1 17.017 61.6122 17.017 
479 1 18.6097 60.0196 15.4243 
480 1 20.2024 61.6122 17.017 
481 1 21.7951 60.0196 15.4243 
482 1 23.3878 61.6122 17.017 
483 1 24.9804 60.0196 15.4243 
484 1 26.5731 61.6122 17.017 
485 1 28.1658 60.0196 15.4243 
486 1 29.7585 61.6122 17.017 
487 1 31.3512 60.0196 15.4243 
488 1 32.9439 61.6122 17.017 
489 1 34.5366 60.0196 15.4243 
490 1 36.1293 61.6122 17.017 
491 1 37.7219 60.0196 15.4243 
492 1 39.3146 61.6122 17.017 
493 1 40.9073 60.0196 15.4243 
494 1 42.5 61.6122 17.017 
495 1 44.0927 60.0196 15.4243 
496 1 45.6854 61.6122 17.017 
497 1 47.2781 60.0196 15.4243 
498 1 48.8707 61.6122 17.017 
499 1 50.4634 60.0196 15.4243 
500 1 52.0561 61.6122 17.017 
501 1 53.6488 60.0196 15.4243 
502 1 55.2415 61.6122 17.017 
503 1 56.8342 60.0196 15.4243 
504 1 58.4269 61.6122 17.017 
505 1 60.0196 60.0196 15.4243 
506 1 61.6122 61.6122 17.017 
507 1 63.2049 60.0196 15.4243 
508 1 64.7976 61.6122 17.017 
509 1 66.3903 60.0196 15.4243 
510 1 67.983 61.6122 17.017 
511 1 15.4243 63.2049 15.4243 
512 1 17.017 64.7976 17.017 
513 1 18.6097 63.2049 15.4243 
514 1 20.2024 64.7976 17.017 
515 1 21.7951 63.2049 15.4243 
516 1 23.3878 64.7976 17.017 
517 1 24.9804 63.2049 15.4243 
518 1 26.5731 64.7976 17.017 
519 1 28.1658 63.2049 15.4243 
520 1 29.7585 64.7976 17.017 
521 1 31.3512 63.2049 15.4243 
522 1 32.9439 64.7976 17.017 
523 1 34.5366 63.2049 15.4243 
524 1 36.1293 64.7976 17.017 
525 1 37.7219 63.2049 15.4243 
526 1 39.3146 64.7976 17.017 
527 1 40.9073 63.2049 15.4243 
528 1 42.5 64.7976 17.017 
529 1 44.0927 63.2049 15.4243 
530 1 45.6854 64.7976 17.017 
531 1 47.2781 63.2049 15.4243 
532 1 48.8707 64.7976 17.017 
533 1 50.4634 63.2049 15.4243 
534 1 52.0561 64.7976 17.017 
535 1 53.6488 63.2049 15.4243 
536 1 55.2415 64.7976 17.017 
537 1 56.8342 63.2049 15.4243 
538 1 58.4269 64.7976 17.017 
539 1 60.0196 63.2049 15.4243 
540 1 61.6122 64.7976 17.017 
541 1 63.2049 63.2049 15.4243 
542 1 64.7976 64.7976 17.017 
543 1 66.3903 63.2049 15.4243 
544 1 67.983 64.7976 17.017 
545 1 15.4243 66.3903 15.4243 
546 1 17.017 67.983 17.017 
547 1 18.6097 66.3903 15.4243 
548 1 20.2024 67.983 17.017 
549 1 21.7951 66.3903 15.4243 
550 1 23.3878 67.983 17.017 
551 1 24.9804 66.3903 15.4243 
552 1 26.5731 67.983 17.017 
553 1 28.1658 66.3903 15.4243 
554 1 29.7585 67.983 17.017 
555 1 31.3512 66.3903 15.4243 
556 1 32.9439 67.983 17.017 
557 1 34.5366 66.3903 15.4243 
558 1 36.1293 67.983 17.017 
559 1 37.7219 66.3903 15.4243 
560 1 39.3146 67.983 17.017 
561 1 40.9073 66.3903 15.4243 
562 1 42.5 67.983 17.017 
563 1 44.0927 66.3903 15.4243 
564 1 45.6854 67.983 17.017 
565 1 47.2781 66.3903 15.4243 
566 1 48.8707 67.983 17.017 
567 1 50.4634 66.3903 15.4243 
568 1 52.0561 67.983 17.017 
569 1 53.6488 66.3903 15.4243 
570 1 55.2415 67.983 17.017 
571 1 56.8342 66.3903 15.4243 
572 1 58.4269 67.983 17.017 
573 1 60.0196 66.3903 15.4243 
574 1 61.6122 67.983 17.017 
575 1 63.2049 66.3903 15.4243 
576 1 64.7976 67.983 17.017 
577 1 66.3903 66.3903 15.4243 
578 1 67.983 67.983 17.017 
579 1 15.4243 15.4243 18.6097 
580 1 17.017 17.017 20.2024 
581 1 18.6097 15.4243 18.6097 
582 1 20.2024 17.017 20.2024 
583 1 21.7951 15.4243 18.6097 
584 1 23.3878 17.017 20.2024 
585 1 24.9804 15.4243 18.6097 
586 1 26.5731 17.017 20.2024 
587 1 28.1658 15.4243 18.6097 
588 1 29.7585 17.017 20.2024 
589 1 31.3512 15.4243 18.6097 
590 1 32.9439 17.017 20.2024 
591 1 34.5366 15.4243 18.6097 
592 1 36.1293 17.017 20.2024 
593 1 37.7219 15.4243 18.6097 
594 1 39.3146 17.017 20.2024 
595 1 40.9073 15.4243 18.6097 
596 1 42.5 17.017 20.2024 
597 1 44.0927 15.4243 18.6097 
598 1 45.6854 17.017 20.2024 
599 1 47.2781 15.4243 18.6097 
600 1 48.8707 17.017 20.2024 
601 1 50.4634 15.4243 18.6097 
602 1 52.0561 17.017 20.2024 
603 1 53.6488 15.4243 18.6097 
604 1 55.2415 17.017 20.2024 
605 1 56.8342 15.4243 18.6097 
606 1 58.4269 17.017 20.2024 
607 1 60.0196 15.4243 18.6097 
608 1 61.6122 17.017 20.2024 
609 1 63.2049 15.4243 18.6097 
610 1 64.7976 17.017 20.2024 
611 1 66.3903 15.4243 18.6097 
612 1 67.983 17.017 20.2024 
613 1 15.4243 18.6097 18.6097 
614 1 17.017 20.2024 20.2024 
615 1 18.6097 18.6097 18.6097 
616 1 20.2024 20.2024 20.2024 
617 1 21.7951 18.6097 18.6097 
618 1 23.3878 20.2024 20.2024 
619 1 24.9804 18.6097 18.6097 
620 1 26.5731 20.2024 20.2024 
621 1 28.1658 18.6097 18.6097 
622 1 29.7585 20.2024 20.2024 
623 1 31.3512 18.6097 18.6097 
624 1 32.9439 20.2024 20.2024 
625 1 34.5366 18.6097 18.6097 
626 1 36.1293 20.2024 20.2024 
627 1 37.7219 18.6097 18.6097 
628 1 39.3146 20.2024 20.2024 
629 1 40.9073 18.6097 18.6097 
630 1 42.5 20.2024 20.2024 
631 1 44.0927 18.6097 18.6097 
632 1 45.6854 20.2024 20.2024 
633 1 47.2781 18.6097 18.6097 
634 1 48.8707 20.2024 20.2024 
635 1 50.4634 18.6097 18.6097 
636 1 52.0561 20.2024 20.2024 
637 1 53.6488 18.6097 18.6097 
638 1 55.2415 20.2024 20.2024 
639 1 56.8342 18.6097 18.6097 
640 1 58.4269 20.2024 20.2024 
641 1 60.0196 18.6097 18.6097 
642 1 61.6122 20.2024 20.2024 
643 1 63.2049 18.6097 18.6097 
644 1 64.7976 20.2024 20.2024 
645 1 66.3903 18.6097 18.6097 
646 1 67.983 20.2024 20.2024 
647 1 15.4243 21.7951 18.6097 
648 1 17.017 23.3878 20.2024 
649 1 18.6097 21.7951 18.6097 
650 1 20.2024 23.3878 20.2024 
651 1 21.7951 21.7951 18.6097 
652 1 23.3878 23.3878 20.2024 
653 1 24.9804 21.7951 18.6097 
654 1 26.5731 23.3878 20.2024 
655 1 28.1658 21.7951 18.6097 
656 1 29.7585 23.3878 20.2024 
657 1 31.3512 21.7951 18.6097 
658 1 32.9439 23.3878 20.2024 
659 1 34.5366 21.7951 18.6097 
660 1 36.1293 23.3878 20.2024 
661 1 37.7219 21.7951 18.6097 
662 1 39.3146 23.3878 20.2024 
663 1 40.9073 21.7951 18.6097 
664 1 42.5 23.3878 20.2024 
665 1 44.0927 21.7951 18.6097 
666 1 45.6854 23.3878 20.2024 
667 1 47.2781 21.7951 18.6097 
668 1 48.8707 23.3878 20.2024 
669 1 50.4634 21.7951 18.6097 
670 1 52.0561 23.3878 20.2024 
671 1 53.6488 21.7951 18.6097 
672 1 55.2415 23.3878 20.2024 
673 1 56.8342 21.7951 18.6097 
674 1 58.4269 23.3878 20.2024 
675 1 60.0196 21.7951 18.6097 
676 1 61.6122 23.3878 20.2024 
677 1 63.2049 21.7951 18.6097 
678 1 64.7976 23.3878 20.2024 
679 1 66.3903 21.7951 18.6097 
680 1 67.983 23.3878 20.2024 
681 1 15.4243 24.9804 18.6097 
682 1 17.017 26.5731 20.2024 
683 1 18.6097 24.9804 18.6097 
684 1 20.2024 26.5731 20.2024 
685 1 21.7951 24.9804 18.6097 
686 1 23.3878 26.5731 20.2024 
687 1 24.9804 24.9804 18.6097 
688 1 26.5731 26.5731 20.2024 
689 1 28.1658 24.9804 18.6097 
690 1 29.7585 26.5731 20.2024 
691 1 31.3512 24.9804 18.6097 
692 1 32.9439 26.5731 20.2024 
693 1 34.5366 24.9804 18.6097 
694 1 36.1293 26.5731 20.2024 
695 1 37.7219 24.9804 18.6097 
696 1 39.3146 26.5731 20.2024 
697 1 40.9073 24.9804 18.6097 
698 1 42.5 26.5731 20.2024 
699 1 44.0927 24.9804 18.6097 
700 1 45.6854 26.5731 20.2024 
701 1 47.2781 24.9804 18.6097 
702 1 48.8707 26.5731 20.2024 
703 1 50.4634 24.9804 18.6097 
704 1 52.0561 26.5731 20.2024 
705 1 53.6488 24.9804 18.6097 
706 1 55.2415 26.5731 20.2024 
707 1 56.8342 24.9804 18.6097 
708 1 58.4269 26.5731 20.2024 
709 1 60.0196 24.9804 18.6097 
710 1 61.6122 26.5731 20.2024 
711 1 63.2049 24.9804 18.6097 
712 1 64.7976 26.5731 20.2024 
713 1 66.3903 24.9804 18.6097 
714 1 67.983 26.5731 20.2024 
715 1 15.4243 28.1658 18.6097 
716 1 17.017 29.7585 20.2024 
717 1 18.6097 28.1658 18.6097 
718 1 20.2024 29.7585 20.2024 
719 1 21.7951 28.1658 18.6097 
720 1 23.3878 29.7585 20.2024 
721 1 24.9804 28.1658 18.6097 
722 1 26.5731 29.7585 20.2024 
723 1 28.1658 28.1658 18.6097 
724 1 29.7585 29.7585 20.2024 
725 1 31.3512 28.1658 18.6097 
726 1 32.9439 29.7585 20.2024 
727 1 34.5366 28.1658 18.6097 
728 1 36.1293 29.7585 20.2024 
729 1 37.7219 28.1658 18.6097 
730 1 39.3146 29.7585 20.2024 
731 1 40.9073 28.1658 18.6097 
732 1 42.5 29.7585 20.2024 
733 1 44.0927 28.1658 18.6097 
734 1 45.6854 29.7585 20.2024 
735 1 47.2781 28.1658 18.6097 
736 1 48.8707 29.7585 20.2024 
737 1 50.4634 28.1658 18.6097 
738 1 52.0561 29.7585 20.2024 
739 1 53.6488 28.1658 18.6097 
740 1 55.2415 29.7585 20.2024 
741 1 56.8342 28.1658 18.6097 
742 1 58.4269 29.7585 20.2024 
743 1 60.0196 28.1658 18.6097 
744 1 61.6122 29.7585 20.2024 
745 1 63.2049 28.1658 18.6097 
746 1 64.7976 29.7585 20.2024 
747 1 66.3903 28.1658 18.6097 
748 1 67.983 29.7585 20.2024 
749 1 15.4243 31.3512 18.6097 
750 1 17.017 32.9439 20.2024 
751 1 18.6097 31.3512 18.6097 
752 1 20.2024 32.9439 20.2024 
753 1 21.7951 31.3512 18.6097 
754 1 23.3878 32.9439 20.2024 
755 1 24.9804 31.3512 18.6097 
756 1 26.5731 32.9439 20.2024 
757 1 28.1658 31.3512 18.6097 
758 1 29.7585 32.9439 20.2024 
759 1 31.3512 31.3512 18.6097 
760 1 32.9439 32.9439 20.2024 
761 1 34.5366 31.3512 18.6097 
762 1 36.1293 32.9439 20.2024 
763 1 37.7219 31.3512 18.6097 
764 1 39.3146 32.9439 20.2024 
765 1 40.9073 31.3512 18.6097 
766 1 42.5 32.9439 20.2024 
767 1 44.0927 31.3512 18.6097 
768 1 45.6854 32.9439 20.2024 
769 1 47.2781 31.3512 18.6097 
770 1 48.8707 32.9439 20.2024 
771 1 50.4634 31.3512 18.6097 
772 1 52.0561 32.9439 20.2024 
773 1 53.6488 31.3512 18.6097 
774 1 55.2415 32.9439 20.2024 
775 1 56.8342 31.3512 18.6097 
776 1 58.4269 32.9439 20.2024 
777 1 60.0196 31.3512 18.6097 
778 1 61.6122 32.9439 20.2024 
779 1 63.2049 31.3512 18.6097 
780 1 64.7976 32.9439 20.2024 
781 1 66.3903 31.3512 18.6097 
782 1 67.983 32.9439 20.2024 
783 1 15.4243 34.5366 18.6097 
784 1 17.017 36.1293 20.2024 
785 1 18.6097 34.5366 18.6097 
786 1 20.2024 36.1293 20.2024 
787 1 21.7951 34.5366 18.6097 
788 1 23.3878 36.1293 20.2024 
789 1 24.9804 34.5366 18.6097 
790 1 26.5731 36.1293 20.2024 
791 1 28.1658 34.5366 18.6097 
792 1 29.7585 36.1293 20.2024 
793 1 31.3512 34.5366 18.6097 
794 1 32.9439 36.1293 20.2024 
795 1 34.5366 34.5366 18.6097 
796 1 36.1293 36.1293 20.2024 
797 1 37.7219 34.5366 18.6097 
798 1 39.3146 36.1293 20.2024 
799 1 40.9073 34.5366 18.6097 
800 1 42.5 36.1293 20.2024 
801 1 44.0927 34.5366 18.6097 
802 1 45.6854 36.1293 20.2024 
803 1 47.2781 34.5366 18.6097 
804 1 48.8707 36.1293 20.2024 
805 1 50.4634 34.5366 18.6097 
806 1 52.0561 36.1293 20.2024 
807 1 53.6488 34.5366 18.6097 
808 1 55.2415 36.1293 20.2024 
809 1 56.8342 34.5366 18.6097 
810 1 58.4269 36.1293 20.2024 
811 1 60.0196 34.5366 18.6097 
812 1 61.6122 36.1293 20.2024 
813 1 63.2049 34.5366 18.6097 
814 1 64.7976 36.1293 20.2024 
815 1 66.3903 34.5366 18.6097 
816 1 67.983 36.1293 20.2024 
817 1 15.4243 37.7219 18.6097 
818 1 17.017 39.3146 20.2024 
819 1 18.6097 37.7219 18.6097 
820 1 20.2024 39.3146 20.2024 
821 1 21.7951 37.7219 18.6097 
822 1 23.3878 39.3146 20.2024 
823 1 24.9804 37.7219 18.6097 
824 1 26.5731 39.3146 20.2024 
825 1 28.1658 37.7219 18.6097 
826 1 29.7585 39.3146 20.2024 
827 1 31.3512 37.7219 18.6097 
828 1 32.9439 39.3146 20.2024 
829 1 34.5366 37.7219 18.6097 
830 1 36.1293 39.3146 20.2024 
831 1 37.7219 37.7219 18.6097 
832 1 39.3146 39.3146 20.2024 
833 1 40.9073 37.7219 18.6097 
834 1 42.5 39.3146 20.2024 
835 1 44.0927 37.7219 18.6097 
836 1 45.6854 39.3146 20.2024 
837 1 47.2781 37.7219 18.6097 
838 1 48.8707 39.3146 20.2024 
839 1 50.4634 37.7219 18.6097 
840 1 52.0561 39.3146 20.2024 
841 1 53.6488 37.7219 18.6097 
842 1 55.2415 39.3146 20.2024 
843 1 56.8342 37.7219 18.6097 
844 1 58.4269 39.3146 20.2024 
845 1 60.0196 37.7219 18.6097 
846 1 61.6122 39.3146 20.2024 
847 1 63.2049 37.7219 18.6097 
848 1 64.7976 39.3146 20.2024 
849 1 66.3903 37.7219 18.6097 
850 1 67.983 39.3146 20.2024 
851 1 15.4243 40.9073 18.6097 
852 1 17.017 42.5 20.2024 
853 1 18.6097 40.9073 18.6097 
854 1 20.2024 42.5 20.2024 
855 1 21.7951 40.9073 18.6097 
856 1 23.3878 42.5 20.2024 
857 1 24.9804 40.9073 18.6097 
858 1 26.5731 42.5 20.2024 
859 1 28.1658 40.9073 18.6097 
860 1 29.7585 42.5 20.2024 
861 1 31.3512 40.9073 18.6097 
862 1 32.9439 42.5 20.2024 
863 1 34.5366 40.9073 18.6097 
864 1 36.1293 42.5 20.2024 
865 1 37.7219 40.9073 18.6097 
866 1 39.3146 42.5 20.2024 
867 1 40.9073 40.9073 18.6097 
868 1 42.5 42.5 20.2024 
869 1 44.0927 40.9073 18.6097 
870 1 45.6854 42.5 20.2024 
871 1 47.2781 40.9073 18.6097 
872 1 48.8707 42.5 20.2024 
873 1 50.4634 40.9073 18.6097 
874 1 52.0561 42.5 20.2024 
875 1 53.6488 40.9073 18.6097 
876 1 55.2415 42.5 20.2024 
877 1 56.8342 40.9073 18.6097 
878 1 58.4269 42.5 20.2024 
879 1 60.0196 40.9073 18.6097 
880 1 61.6122 42.5 20.2024 
881 1 63.2049 40.9073 18.6097 
882 1 64.7976 42.5 20.2024 
883 1 66.3903 40.9073 18.6097 
884 1 67.983 42.5 20.2024 
885 1 15.4243 44.0927 18.6097 
886 1 17.017 45.6854 20.2024 
887 1 18.6097 44.0927 18.6097 
888 1 20.2024 45.6854 20.2024 
889 1 21.7951 44.0927 18.6097 
890 1 23.3878 45.6854 20.2024 
891 1 24.9804 44.0927 18.6097 
892 1 26.5731 45.6854 20.2024 
893 1 28.1658 44.0927 18.6097 
894 1 29.7585 45.6854 20.2024 
895 1 31.3512 44.0927 18.6097 
896 1 32.9439 45.6854 20.2024 
897 1 34.5366 44.0927 18.6097 
898 1 36.1293 45.6854 20.2024 
899 1 37.7219 44.0927 18.6097 
900 1 39.3146 45.6854 20.2024 
901 1 40.9073 44.0927 18.6097 
902 1 42.5 45.6854 20.2024 
903 1 44.0927 44.0927 18.6097 
904 1 45.6854 45.6854 20.2024 
905 1 47.2781 44.0927 18.6097 
906 1 48.8707 45.6854 20.2024 
907 1 50.4634 44.0927 18.6097 
908 1 52.0561 45.6854 20.2024 
909 1 53.6488 44.0927 18.6097 
910 1 55.2415 45.6854 20.2024 
911 1 56.8342 44.0927 18.6097 
912 1 58.4269 45.6854 20.2024 
913 1 60.0196 44.0927 18.6097 
914 1 61.6122 45.6854 20.2024 
915 1 63.2049 44.0927 18.6097 
916 1 64.7976 45.6854 20.2024 
917 1 66.3903 44.0927 18.6097 
918 1 67.983 45.6854 20.2024 
919 1 15.4243 47.2781 18.6097 
920 1 17.017 48.8707 20.2024 
921 1 18.6097 47.2781 18.6097 
922 1 20.2024 48.8707 20.2024 
923 1 21.7951 47.2781 18.6097 
924 1 23.3878 48.8707 20.2024 
925 1 24.9804 47.2781 18.6097 
926 1 26.5731 48.8707 20.2024 
927 1 28.1658 47.2781 18.6097 
928 1 29.7585 48.8707 20.2024 
929 1 31.3512 47.2781 18.6097 
930 1 32.9439 48.8707 20.2024 
931 1 34.5366 47.2781 18.6097 
932 1 36.1293 48.8707 20.2024 
933 1 37.7219 47.2781 18.6097 
934 1 39.3146 48.8707 20.2024 
935 1 40.9073 47.2781 18.6097 
936 1 42.5 48.8707 20.2024 
937 1 44.0927 47.2781 18.6097 
938 1 45.6854 48.8707 20.2024 
939 1 47.2781 47.2781 18.6097 
940 1 48.8707 48.8707 20.2024 
941 1 50.4634 47.2781 18.6097 
942 1 52.0561 48.8707 20.2024 
943 1 53.6488 47.2781 18.6097 
944 1 55.2415 48.8707 20.2024 
945 1 56.8342 47.2781 18.6097 
946 1 58.4269 48.8707 20.2024 
947 1 60.0196 47.2781 18.6097 
948 1 61.6122 48.8707 20.2024 
949 1 63.2049 47.2781 18.6097 
950 1 64.7976 48.8707 20.2024 
951 1 66.3903 47.2781 18.6097 
952 1 67.983 48.8707 20.2024 
953 1 15.4243 50.4634 18.6097 
954 1 17.017 52.0561 20.2024 
955 1 18.6097 50.4634 18.6097 
956 1 20.2024 52.0561 20.2024 
957 1 21.7951 50.4634 18.6097 
958 1 23.3878 52.0561 20.2024 
959 1 24.9804 50.4634 18.6097 
960 1 26.5731 52.0561 20.2024 
961 1 28.1658 50.4634 18.6097 
962 1 29.7585 52.0561 20.2024 
963 1 31.3512 50.4634 18.6097 
964 1 32.9439 52.0561 20.2024 
965 1 34.5366 50.4634 18.6097 
966 1 36.1293 52.0561 20.2024 
967 1 37.7219 50.4634 18.6097 
968 1 39.3146 52.0561 20.2024 
969 1 40.9073 50.4634 18.6097 
970 1 42.5 52.0561 20.2024 
971 1 44.0927 50.4634 18.6097 
972 1 45.6854 52.0561 20.2024 
973 1 47.2781 50.4634 18.6097 
974 1 48.8707 52.0561 20.2024 
975 1 50.4634 50.4634 18.6097 
976 1 52.0561 52.0561 20.2024 
977 1 53.6488 50.4634 18.6097 
978 1 55.2415 52.0561 20.2024 
979 1 56.8342 50.4634 18.6097 
980 1 58.4269 52.0561 20.2024 
981 1 60.0196 50.4634 18.6097 
982 1 61.6122 52.0561 20.2024 