ITEM: TIMESTEP
58
ITEM: NUMBER OF ATOMS
19652
ITEM: BOX BOUNDS pp pp pp
1.1843618357100977e+01 7.3156381642898722e+01
2.0513748739954270e+01 1.2671056990340082e+02
1.9340547788771602e+01 1.1946387096894156e+02
ITEM: ATOMS id type xu yu zu 
1 2 11.8436 20.5137 19.3405 
2 2 13.6469 23.6372 19.3405 
3 2 13.6469 25.7195 22.2854 
4 2 11.8436 22.596 22.2854 
5 2 15.4503 20.5137 19.3405 
6 2 17.2536 23.6372 19.3405 
7 2 17.2536 25.7195 22.2854 
8 2 15.4503 22.596 22.2854 
9 2 19.0569 20.5137 19.3405 
10 2 20.8602 23.6372 19.3405 
11 2 20.8602 25.7195 22.2854 
12 2 19.0569 22.596 22.2854 
13 2 22.6635 20.5137 19.3405 
14 2 24.4668 23.6372 19.3405 
15 2 24.4668 25.7195 22.2854 
16 2 22.6635 22.596 22.2854 
17 2 26.2702 20.5137 19.3405 
18 2 28.0735 23.6372 19.3405 
19 2 28.0735 25.7195 22.2854 
20 2 26.2702 22.596 22.2854 
21 2 29.8768 20.5137 19.3405 
22 2 31.6801 23.6372 19.3405 
23 2 31.6801 25.7195 22.2854 
24 2 29.8768 22.596 22.2854 
25 2 33.4834 20.5137 19.3405 
26 2 35.2867 23.6372 19.3405 
27 2 35.2867 25.7195 22.2854 
28 2 33.4834 22.596 22.2854 
29 2 37.0901 20.5137 19.3405 
30 2 38.8934 23.6372 19.3405 
31 2 38.8934 25.7195 22.2854 
32 2 37.0901 22.596 22.2854 
33 2 40.6967 20.5137 19.3405 
34 2 42.5 23.6372 19.3405 
35 2 42.5 25.7195 22.2854 
36 2 40.6967 22.596 22.2854 
37 2 44.3033 20.5137 19.3405 
38 2 46.1066 23.6372 19.3405 
39 2 46.1066 25.7195 22.2854 
40 2 44.3033 22.596 22.2854 
41 2 47.9099 20.5137 19.3405 
42 2 49.7133 23.6372 19.3405 
43 2 49.7133 25.7195 22.2854 
44 2 47.9099 22.596 22.2854 
45 2 51.5166 20.5137 19.3405 
46 2 53.3199 23.6372 19.3405 
47 2 53.3199 25.7195 22.2854 
48 2 51.5166 22.596 22.2854 
49 2 55.1232 20.5137 19.3405 
50 2 56.9265 23.6372 19.3405 
51 2 56.9265 25.7195 22.2854 
52 2 55.1232 22.596 22.2854 
53 2 58.7298 20.5137 19.3405 
54 2 60.5332 23.6372 19.3405 
55 2 60.5332 25.7195 22.2854 
56 2 58.7298 22.596 22.2854 
57 2 62.3365 20.5137 19.3405 
58 2 64.1398 23.6372 19.3405 
59 2 64.1398 25.7195 22.2854 
60 2 62.3365 22.596 22.2854 
61 2 65.9431 20.5137 19.3405 
62 2 67.7464 23.6372 19.3405 
63 2 67.7464 25.7195 22.2854 
64 2 65.9431 22.596 22.2854 
65 2 69.5497 20.5137 19.3405 
66 2 71.3531 23.6372 19.3405 
67 2 71.3531 25.7195 22.2854 
68 2 69.5497 22.596 22.2854 
69 2 11.8436 26.7606 19.3405 
70 2 13.6469 29.8841 19.3405 
71 2 13.6469 31.9663 22.2854 
72 2 11.8436 28.8429 22.2854 
73 2 15.4503 26.7606 19.3405 
74 2 17.2536 29.8841 19.3405 
75 2 17.2536 31.9663 22.2854 
76 2 15.4503 28.8429 22.2854 
77 2 19.0569 26.7606 19.3405 
78 2 20.8602 29.8841 19.3405 
79 2 20.8602 31.9663 22.2854 
80 2 19.0569 28.8429 22.2854 
81 2 22.6635 26.7606 19.3405 
82 2 24.4668 29.8841 19.3405 
83 2 24.4668 31.9663 22.2854 
84 2 22.6635 28.8429 22.2854 
85 2 26.2702 26.7606 19.3405 
86 2 28.0735 29.8841 19.3405 
87 2 28.0735 31.9663 22.2854 
88 2 26.2702 28.8429 22.2854 
89 2 29.8768 26.7606 19.3405 
90 2 31.6801 29.8841 19.3405 
91 2 31.6801 31.9663 22.2854 
92 2 29.8768 28.8429 22.2854 
93 2 33.4834 26.7606 19.3405 
94 2 35.2867 29.8841 19.3405 
95 2 35.2867 31.9663 22.2854 
96 2 33.4834 28.8429 22.2854 
97 2 37.0901 26.7606 19.3405 
98 2 38.8934 29.8841 19.3405 
99 2 38.8934 31.9663 22.2854 
100 2 37.0901 28.8429 22.2854 
101 2 40.6967 26.7606 19.3405 
102 2 42.5 29.8841 19.3405 
103 2 42.5 31.9663 22.2854 
104 2 40.6967 28.8429 22.2854 
105 2 44.3033 26.7606 19.3405 
106 2 46.1066 29.8841 19.3405 
107 2 46.1066 31.9663 22.2854 
108 2 44.3033 28.8429 22.2854 
109 2 47.9099 26.7606 19.3405 
110 2 49.7133 29.8841 19.3405 
111 2 49.7133 31.9663 22.2854 
112 2 47.9099 28.8429 22.2854 
113 2 51.5166 26.7606 19.3405 
114 2 53.3199 29.8841 19.3405 
115 2 53.3199 31.9663 22.2854 
116 2 51.5166 28.8429 22.2854 
117 2 55.1232 26.7606 19.3405 
118 2 56.9265 29.8841 19.3405 
119 2 56.9265 31.9663 22.2854 
120 2 55.1232 28.8429 22.2854 
121 2 58.7298 26.7606 19.3405 
122 2 60.5332 29.8841 19.3405 
123 2 60.5332 31.9663 22.2854 
124 2 58.7298 28.8429 22.2854 
125 2 62.3365 26.7606 19.3405 
126 2 64.1398 29.8841 19.3405 
127 2 64.1398 31.9663 22.2854 
128 2 62.3365 28.8429 22.2854 
129 2 65.9431 26.7606 19.3405 
130 2 67.7464 29.8841 19.3405 
131 2 67.7464 31.9663 22.2854 
132 2 65.9431 28.8429 22.2854 
133 2 69.5497 26.7606 19.3405 
134 2 71.3531 29.8841 19.3405 
135 2 71.3531 31.9663 22.2854 
136 2 69.5497 28.8429 22.2854 
137 2 11.8436 33.0075 19.3405 
138 2 13.6469 36.1309 19.3405 
139 2 13.6469 38.2132 22.2854 
140 2 11.8436 35.0898 22.2854 
141 2 15.4503 33.0075 19.3405 
142 2 17.2536 36.1309 19.3405 
143 2 17.2536 38.2132 22.2854 
144 2 15.4503 35.0898 22.2854 
145 2 19.0569 33.0075 19.3405 
146 2 20.8602 36.1309 19.3405 
147 2 20.8602 38.2132 22.2854 
148 2 19.0569 35.0898 22.2854 
149 2 22.6635 33.0075 19.3405 
150 2 24.4668 36.1309 19.3405 
151 2 24.4668 38.2132 22.2854 
152 2 22.6635 35.0898 22.2854 
153 2 26.2702 33.0075 19.3405 
154 2 28.0735 36.1309 19.3405 
155 2 28.0735 38.2132 22.2854 
156 2 26.2702 35.0898 22.2854 
157 2 29.8768 33.0075 19.3405 
158 2 31.6801 36.1309 19.3405 
159 2 31.6801 38.2132 22.2854 
160 2 29.8768 35.0898 22.2854 
161 2 33.4834 33.0075 19.3405 
162 2 35.2867 36.1309 19.3405 
163 2 35.2867 38.2132 22.2854 
164 2 33.4834 35.0898 22.2854 
165 2 37.0901 33.0075 19.3405 
166 2 38.8934 36.1309 19.3405 
167 2 38.8934 38.2132 22.2854 
168 2 37.0901 35.0898 22.2854 
169 2 40.6967 33.0075 19.3405 
170 2 42.5 36.1309 19.3405 
171 2 42.5 38.2132 22.2854 
172 2 40.6967 35.0898 22.2854 
173 2 44.3033 33.0075 19.3405 
174 2 46.1066 36.1309 19.3405 
175 2 46.1066 38.2132 22.2854 
176 2 44.3033 35.0898 22.2854 
177 2 47.9099 33.0075 19.3405 
178 2 49.7133 36.1309 19.3405 
179 2 49.7133 38.2132 22.2854 
180 2 47.9099 35.0898 22.2854 
181 2 51.5166 33.0075 19.3405 
182 2 53.3199 36.1309 19.3405 
183 2 53.3199 38.2132 22.2854 
184 2 51.5166 35.0898 22.2854 
185 2 55.1232 33.0075 19.3405 
186 2 56.9265 36.1309 19.3405 
187 2 56.9265 38.2132 22.2854 
188 2 55.1232 35.0898 22.2854 
189 2 58.7298 33.0075 19.3405 
190 2 60.5332 36.1309 19.3405 
191 2 60.5332 38.2132 22.2854 
192 2 58.7298 35.0898 22.2854 
193 2 62.3365 33.0075 19.3405 
194 2 64.1398 36.1309 19.3405 
195 2 64.1398 38.2132 22.2854 
196 2 62.3365 35.0898 22.2854 
197 2 65.9431 33.0075 19.3405 
198 2 67.7464 36.1309 19.3405 
199 2 67.7464 38.2132 22.2854 
200 2 65.9431 35.0898 22.2854 
201 2 69.5497 33.0075 19.3405 
202 2 71.3531 36.1309 19.3405 
203 2 71.3531 38.2132 22.2854 
204 2 69.5497 35.0898 22.2854 
205 2 11.8436 39.2544 19.3405 
206 2 13.6469 42.3778 19.3405 
207 2 13.6469 44.4601 22.2854 
208 2 11.8436 41.3367 22.2854 
209 2 15.4503 39.2544 19.3405 
210 2 17.2536 42.3778 19.3405 
211 2 17.2536 44.4601 22.2854 
212 2 15.4503 41.3367 22.2854 
213 2 19.0569 39.2544 19.3405 
214 2 20.8602 42.3778 19.3405 
215 2 20.8602 44.4601 22.2854 
216 2 19.0569 41.3367 22.2854 
217 2 22.6635 39.2544 19.3405 
218 2 24.4668 42.3778 19.3405 
219 2 24.4668 44.4601 22.2854 
220 2 22.6635 41.3367 22.2854 
221 2 26.2702 39.2544 19.3405 
222 2 28.0735 42.3778 19.3405 
223 2 28.0735 44.4601 22.2854 
224 2 26.2702 41.3367 22.2854 
225 2 29.8768 39.2544 19.3405 
226 2 31.6801 42.3778 19.3405 
227 2 31.6801 44.4601 22.2854 
228 2 29.8768 41.3367 22.2854 
229 2 33.4834 39.2544 19.3405 
230 2 35.2867 42.3778 19.3405 
231 2 35.2867 44.4601 22.2854 
232 2 33.4834 41.3367 22.2854 
233 2 37.0901 39.2544 19.3405 
234 2 38.8934 42.3778 19.3405 
235 2 38.8934 44.4601 22.2854 
236 2 37.0901 41.3367 22.2854 
237 2 40.6967 39.2544 19.3405 
238 2 42.5 42.3778 19.3405 
239 2 42.5 44.4601 22.2854 
240 2 40.6967 41.3367 22.2854 
241 2 44.3033 39.2544 19.3405 
242 2 46.1066 42.3778 19.3405 
243 2 46.1066 44.4601 22.2854 
244 2 44.3033 41.3367 22.2854 
245 2 47.9099 39.2544 19.3405 
246 2 49.7133 42.3778 19.3405 
247 2 49.7133 44.4601 22.2854 
248 2 47.9099 41.3367 22.2854 
249 2 51.5166 39.2544 19.3405 
250 2 53.3199 42.3778 19.3405 
251 2 53.3199 44.4601 22.2854 
252 2 51.5166 41.3367 22.2854 
253 2 55.1232 39.2544 19.3405 
254 2 56.9265 42.3778 19.3405 
255 2 56.9265 44.4601 22.2854 
256 2 55.1232 41.3367 22.2854 
257 2 58.7298 39.2544 19.3405 
258 2 60.5332 42.3778 19.3405 
259 2 60.5332 44.4601 22.2854 
260 2 58.7298 41.3367 22.2854 
261 2 62.3365 39.2544 19.3405 
262 2 64.1398 42.3778 19.3405 
263 2 64.1398 44.4601 22.2854 
264 2 62.3365 41.3367 22.2854 
265 2 65.9431 39.2544 19.3405 
266 2 67.7464 42.3778 19.3405 
267 2 67.7464 44.4601 22.2854 
268 2 65.9431 41.3367 22.2854 
269 2 69.5497 39.2544 19.3405 
270 2 71.3531 42.3778 19.3405 
271 2 71.3531 44.4601 22.2854 
272 2 69.5497 41.3367 22.2854 
273 2 11.8436 45.5012 19.3405 
274 2 13.6469 48.6247 19.3405 
275 2 13.6469 50.707 22.2854 
276 2 11.8436 47.5835 22.2854 
277 2 15.4503 45.5012 19.3405 
278 2 17.2536 48.6247 19.3405 
279 2 17.2536 50.707 22.2854 
280 2 15.4503 47.5835 22.2854 
281 2 19.0569 45.5012 19.3405 
282 2 20.8602 48.6247 19.3405 
283 2 20.8602 50.707 22.2854 
284 2 19.0569 47.5835 22.2854 
285 2 22.6635 45.5012 19.3405 
286 2 24.4668 48.6247 19.3405 
287 2 24.4668 50.707 22.2854 
288 2 22.6635 47.5835 22.2854 
289 2 26.2702 45.5012 19.3405 
290 2 28.0735 48.6247 19.3405 
291 2 28.0735 50.707 22.2854 
292 2 26.2702 47.5835 22.2854 
293 2 29.8768 45.5012 19.3405 
294 2 31.6801 48.6247 19.3405 
295 2 31.6801 50.707 22.2854 
296 2 29.8768 47.5835 22.2854 
297 2 33.4834 45.5012 19.3405 
298 2 35.2867 48.6247 19.3405 
299 2 35.2867 50.707 22.2854 
300 2 33.4834 47.5835 22.2854 
301 2 37.0901 45.5012 19.3405 
302 2 38.8934 48.6247 19.3405 
303 2 38.8934 50.707 22.2854 
304 2 37.0901 47.5835 22.2854 
305 2 40.6967 45.5012 19.3405 
306 2 42.5 48.6247 19.3405 
307 2 42.5 50.707 22.2854 
308 2 40.6967 47.5835 22.2854 
309 2 44.3033 45.5012 19.3405 
310 2 46.1066 48.6247 19.3405 
311 2 46.1066 50.707 22.2854 
312 2 44.3033 47.5835 22.2854 
313 2 47.9099 45.5012 19.3405 
314 2 49.7133 48.6247 19.3405 
315 2 49.7133 50.707 22.2854 
316 2 47.9099 47.5835 22.2854 
317 2 51.5166 45.5012 19.3405 
318 2 53.3199 48.6247 19.3405 
319 2 53.3199 50.707 22.2854 
320 2 51.5166 47.5835 22.2854 
321 2 55.1232 45.5012 19.3405 
322 2 56.9265 48.6247 19.3405 
323 2 56.9265 50.707 22.2854 
324 2 55.1232 47.5835 22.2854 
325 2 58.7298 45.5012 19.3405 
326 2 60.5332 48.6247 19.3405 
327 2 60.5332 50.707 22.2854 
328 2 58.7298 47.5835 22.2854 
329 2 62.3365 45.5012 19.3405 
330 2 64.1398 48.6247 19.3405 
331 2 64.1398 50.707 22.2854 
332 2 62.3365 47.5835 22.2854 
333 2 65.9431 45.5012 19.3405 
334 2 67.7464 48.6247 19.3405 
335 2 67.7464 50.707 22.2854 
336 2 65.9431 47.5835 22.2854 
337 2 69.5497 45.5012 19.3405 
338 2 71.3531 48.6247 19.3405 
339 2 71.3531 50.707 22.2854 
340 2 69.5497 47.5835 22.2854 
341 2 11.8436 51.7481 19.3405 
342 2 13.6469 54.8715 19.3405 
343 2 13.6469 56.9538 22.2854 
344 2 11.8436 53.8304 22.2854 
345 2 15.4503 51.7481 19.3405 
346 2 17.2536 54.8715 19.3405 
347 2 17.2536 56.9538 22.2854 
348 2 15.4503 53.8304 22.2854 
349 2 19.0569 51.7481 19.3405 
350 2 20.8602 54.8715 19.3405 
351 2 20.8602 56.9538 22.2854 
352 2 19.0569 53.8304 22.2854 
353 2 22.6635 51.7481 19.3405 
354 2 24.4668 54.8715 19.3405 
355 2 24.4668 56.9538 22.2854 
356 2 22.6635 53.8304 22.2854 
357 2 26.2702 51.7481 19.3405 
358 2 28.0735 54.8715 19.3405 
359 2 28.0735 56.9538 22.2854 
360 2 26.2702 53.8304 22.2854 
361 2 29.8768 51.7481 19.3405 
362 2 31.6801 54.8715 19.3405 
363 2 31.6801 56.9538 22.2854 
364 2 29.8768 53.8304 22.2854 
365 2 33.4834 51.7481 19.3405 
366 2 35.2867 54.8715 19.3405 
367 2 35.2867 56.9538 22.2854 
368 2 33.4834 53.8304 22.2854 
369 2 37.0901 51.7481 19.3405 
370 2 38.8934 54.8715 19.3405 
371 2 38.8934 56.9538 22.2854 
372 2 37.0901 53.8304 22.2854 
373 2 40.6967 51.7481 19.3405 
374 2 42.5 54.8715 19.3405 
375 2 42.5 56.9538 22.2854 
376 2 40.6967 53.8304 22.2854 
377 2 44.3033 51.7481 19.3405 
378 2 46.1066 54.8715 19.3405 
379 2 46.1066 56.9538 22.2854 
380 2 44.3033 53.8304 22.2854 
381 2 47.9099 51.7481 19.3405 
382 2 49.7133 54.8715 19.3405 
383 2 49.7133 56.9538 22.2854 
384 2 47.9099 53.8304 22.2854 
385 2 51.5166 51.7481 19.3405 
386 2 53.3199 54.8715 19.3405 
387 2 53.3199 56.9538 22.2854 
388 2 51.5166 53.8304 22.2854 
389 2 55.1232 51.7481 19.3405 
390 2 56.9265 54.8715 19.3405 
391 2 56.9265 56.9538 22.2854 
392 2 55.1232 53.8304 22.2854 
393 2 58.7298 51.7481 19.3405 
394 2 60.5332 54.8715 19.3405 
395 2 60.5332 56.9538 22.2854 
396 2 58.7298 53.8304 22.2854 
397 2 62.3365 51.7481 19.3405 
398 2 64.1398 54.8715 19.3405 
399 2 64.1398 56.9538 22.2854 
400 2 62.3365 53.8304 22.2854 
401 2 65.9431 51.7481 19.3405 
402 2 67.7464 54.8715 19.3405 
403 2 67.7464 56.9538 22.2854 
404 2 65.9431 53.8304 22.2854 
405 2 69.5497 51.7481 19.3405 
406 2 71.3531 54.8715 19.3405 
407 2 71.3531 56.9538 22.2854 
408 2 69.5497 53.8304 22.2854 
409 2 11.8436 57.995 19.3405 
410 2 13.6469 61.1184 19.3405 
411 2 13.6469 63.2007 22.2854 
412 2 11.8436 60.0773 22.2854 
413 2 15.4503 57.995 19.3405 
414 2 17.2536 61.1184 19.3405 
415 2 17.2536 63.2007 22.2854 
416 2 15.4503 60.0773 22.2854 
417 2 19.0569 57.995 19.3405 
418 2 20.8602 61.1184 19.3405 
419 2 20.8602 63.2007 22.2854 
420 2 19.0569 60.0773 22.2854 
421 2 22.6635 57.995 19.3405 
422 2 24.4668 61.1184 19.3405 
423 2 24.4668 63.2007 22.2854 
424 2 22.6635 60.0773 22.2854 
425 2 26.2702 57.995 19.3405 
426 2 28.0735 61.1184 19.3405 
427 2 28.0735 63.2007 22.2854 
428 2 26.2702 60.0773 22.2854 
429 2 29.8768 57.995 19.3405 
430 2 31.6801 61.1184 19.3405 
431 2 31.6801 63.2007 22.2854 
432 2 29.8768 60.0773 22.2854 
433 2 33.4834 57.995 19.3405 
434 2 35.2867 61.1184 19.3405 
435 2 35.2867 63.2007 22.2854 
436 2 33.4834 60.0773 22.2854 
437 2 37.0901 57.995 19.3405 
438 2 38.8934 61.1184 19.3405 
439 2 38.8934 63.2007 22.2854 
440 2 37.0901 60.0773 22.2854 
441 2 40.6967 57.995 19.3405 
442 2 42.5 61.1184 19.3405 
443 2 42.5 63.2007 22.2854 
444 2 40.6967 60.0773 22.2854 
445 2 44.3033 57.995 19.3405 
446 2 46.1066 61.1184 19.3405 
447 2 46.1066 63.2007 22.2854 
448 2 44.3033 60.0773 22.2854 
449 2 47.9099 57.995 19.3405 
450 2 49.7133 61.1184 19.3405 
451 2 49.7133 63.2007 22.2854 
452 2 47.9099 60.0773 22.2854 
453 2 51.5166 57.995 19.3405 
454 2 53.3199 61.1184 19.3405 
455 2 53.3199 63.2007 22.2854 
456 2 51.5166 60.0773 22.2854 
457 2 55.1232 57.995 19.3405 
458 2 56.9265 61.1184 19.3405 
459 2 56.9265 63.2007 22.2854 
460 2 55.1232 60.0773 22.2854 
461 2 58.7298 57.995 19.3405 
462 2 60.5332 61.1184 19.3405 
463 2 60.5332 63.2007 22.2854 
464 2 58.7298 60.0773 22.2854 
465 2 62.3365 57.995 19.3405 
466 2 64.1398 61.1184 19.3405 
467 2 64.1398 63.2007 22.2854 
468 2 62.3365 60.0773 22.2854 
469 2 65.9431 57.995 19.3405 
470 2 67.7464 61.1184 19.3405 
471 2 67.7464 63.2007 22.2854 
472 2 65.9431 60.0773 22.2854 
473 2 69.5497 57.995 19.3405 
474 2 71.3531 61.1184 19.3405 
475 2 71.3531 63.2007 22.2854 
476 2 69.5497 60.0773 22.2854 
477 2 11.8436 64.2419 19.3405 
478 2 13.6469 67.3653 19.3405 
479 2 13.6469 69.4476 22.2854 
480 2 11.8436 66.3241 22.2854 
481 2 15.4503 64.2419 19.3405 
482 2 17.2536 67.3653 19.3405 
483 2 17.2536 69.4476 22.2854 
484 2 15.4503 66.3241 22.2854 
485 2 19.0569 64.2419 19.3405 
486 2 20.8602 67.3653 19.3405 
487 2 20.8602 69.4476 22.2854 
488 2 19.0569 66.3241 22.2854 
489 2 22.6635 64.2419 19.3405 
490 2 24.4668 67.3653 19.3405 
491 2 24.4668 69.4476 22.2854 
492 2 22.6635 66.3241 22.2854 
493 2 26.2702 64.2419 19.3405 
494 2 28.0735 67.3653 19.3405 
495 2 28.0735 69.4476 22.2854 
496 2 26.2702 66.3241 22.2854 
497 2 29.8768 64.2419 19.3405 
498 2 31.6801 67.3653 19.3405 
499 2 31.6801 69.4476 22.2854 
500 2 29.8768 66.3241 22.2854 
501 2 33.4834 64.2419 19.3405 
502 2 35.2867 67.3653 19.3405 
503 2 35.2867 69.4476 22.2854 
504 2 33.4834 66.3241 22.2854 
505 2 37.0901 64.2419 19.3405 
506 2 38.8934 67.3653 19.3405 
507 2 38.8934 69.4476 22.2854 
508 2 37.0901 66.3241 22.2854 
509 2 40.6967 64.2419 19.3405 
510 2 42.5 67.3653 19.3405 
511 2 42.5 69.4476 22.2854 
512 2 40.6967 66.3241 22.2854 
513 2 44.3033 64.2419 19.3405 
514 2 46.1066 67.3653 19.3405 
515 2 46.1066 69.4476 22.2854 
516 2 44.3033 66.3241 22.2854 
517 2 47.9099 64.2419 19.3405 
518 2 49.7133 67.3653 19.3405 
519 2 49.7133 69.4476 22.2854 
520 2 47.9099 66.3241 22.2854 
521 2 51.5166 64.2419 19.3405 
522 2 53.3199 67.3653 19.3405 
523 2 53.3199 69.4476 22.2854 
524 2 51.5166 66.3241 22.2854 
525 2 55.1232 64.2419 19.3405 
526 2 56.9265 67.3653 19.3405 
527 2 56.9265 69.4476 22.2854 
528 2 55.1232 66.3241 22.2854 
529 2 58.7298 64.2419 19.3405 
530 2 60.5332 67.3653 19.3405 
531 2 60.5332 69.4476 22.2854 
532 2 58.7298 66.3241 22.2854 
533 2 62.3365 64.2419 19.3405 
534 2 64.1398 67.3653 19.3405 
535 2 64.1398 69.4476 22.2854 
536 2 62.3365 66.3241 22.2854 
537 2 65.9431 64.2419 19.3405 
538 2 67.7464 67.3653 19.3405 
539 2 67.7464 69.4476 22.2854 
540 2 65.9431 66.3241 22.2854 
541 2 69.5497 64.2419 19.3405 
542 2 71.3531 67.3653 19.3405 
543 2 71.3531 69.4476 22.2854 
544 2 69.5497 66.3241 22.2854 
545 2 11.8436 70.4887 19.3405 
546 2 13.6469 73.6122 19.3405 
547 2 13.6469 75.6944 22.2854 
548 2 11.8436 72.571 22.2854 
549 2 15.4503 70.4887 19.3405 
550 2 17.2536 73.6122 19.3405 
551 2 17.2536 75.6944 22.2854 
552 2 15.4503 72.571 22.2854 
553 2 19.0569 70.4887 19.3405 
554 2 20.8602 73.6122 19.3405 
555 2 20.8602 75.6944 22.2854 
556 2 19.0569 72.571 22.2854 
557 2 22.6635 70.4887 19.3405 
558 2 24.4668 73.6122 19.3405 
559 2 24.4668 75.6944 22.2854 
560 2 22.6635 72.571 22.2854 
561 2 26.2702 70.4887 19.3405 
562 2 28.0735 73.6122 19.3405 
563 2 28.0735 75.6944 22.2854 
564 2 26.2702 72.571 22.2854 
565 2 29.8768 70.4887 19.3405 
566 2 31.6801 73.6122 19.3405 
567 2 31.6801 75.6944 22.2854 
568 2 29.8768 72.571 22.2854 
569 2 33.4834 70.4887 19.3405 
570 2 35.2867 73.6122 19.3405 
571 2 35.2867 75.6944 22.2854 
572 2 33.4834 72.571 22.2854 
573 2 37.0901 70.4887 19.3405 
574 2 38.8934 73.6122 19.3405 
575 2 38.8934 75.6944 22.2854 
576 2 37.0901 72.571 22.2854 
577 2 40.6967 70.4887 19.3405 
578 2 42.5 73.6122 19.3405 
579 2 42.5 75.6944 22.2854 
580 2 40.6967 72.571 22.2854 
581 2 44.3033 70.4887 19.3405 
582 2 46.1066 73.6122 19.3405 
583 2 46.1066 75.6944 22.2854 
584 2 44.3033 72.571 22.2854 
585 2 47.9099 70.4887 19.3405 
586 2 49.7133 73.6122 19.3405 
587 2 49.7133 75.6944 22.2854 
588 2 47.9099 72.571 22.2854 
589 2 51.5166 70.4887 19.3405 
590 2 53.3199 73.6122 19.3405 
591 2 53.3199 75.6944 22.2854 
592 2 51.5166 72.571 22.2854 
593 2 55.1232 70.4887 19.3405 
594 2 56.9265 73.6122 19.3405 
595 2 56.9265 75.6944 22.2854 
596 2 55.1232 72.571 22.2854 
597 2 58.7298 70.4887 19.3405 
598 2 60.5332 73.6122 19.3405 
599 2 60.5332 75.6944 22.2854 
600 2 58.7298 72.571 22.2854 
601 2 62.3365 70.4887 19.3405 
602 2 64.1398 73.6122 19.3405 
603 2 64.1398 75.6944 22.2854 
604 2 62.3365 72.571 22.2854 
605 2 65.9431 70.4887 19.3405 
606 2 67.7464 73.6122 19.3405 
607 2 67.7464 75.6944 22.2854 
608 2 65.9431 72.571 22.2854 
609 2 69.5497 70.4887 19.3405 
610 2 71.3531 73.6122 19.3405 
611 2 71.3531 75.6944 22.2854 
612 2 69.5497 72.571 22.2854 
613 2 11.8436 76.7356 19.3405 
614 2 13.6469 79.859 19.3405 
615 2 13.6469 81.9413 22.2854 
616 2 11.8436 78.8179 22.2854 
617 2 15.4503 76.7356 19.3405 
618 2 17.2536 79.859 19.3405 
619 2 17.2536 81.9413 22.2854 
620 2 15.4503 78.8179 22.2854 
621 2 19.0569 76.7356 19.3405 
622 2 20.8602 79.859 19.3405 
623 2 20.8602 81.9413 22.2854 
624 2 19.0569 78.8179 22.2854 
625 2 22.6635 76.7356 19.3405 
626 2 24.4668 79.859 19.3405 
627 2 24.4668 81.9413 22.2854 
628 2 22.6635 78.8179 22.2854 
629 2 26.2702 76.7356 19.3405 
630 2 28.0735 79.859 19.3405 
631 2 28.0735 81.9413 22.2854 
632 2 26.2702 78.8179 22.2854 
633 2 29.8768 76.7356 19.3405 
634 2 31.6801 79.859 19.3405 
635 2 31.6801 81.9413 22.2854 
636 2 29.8768 78.8179 22.2854 
637 2 33.4834 76.7356 19.3405 
638 2 35.2867 79.859 19.3405 
639 2 35.2867 81.9413 22.2854 
640 2 33.4834 78.8179 22.2854 
641 2 37.0901 76.7356 19.3405 
642 2 38.8934 79.859 19.3405 
643 2 38.8934 81.9413 22.2854 
644 2 37.0901 78.8179 22.2854 
645 2 40.6967 76.7356 19.3405 
646 2 42.5 79.859 19.3405 
647 2 42.5 81.9413 22.2854 
648 2 40.6967 78.8179 22.2854 
649 2 44.3033 76.7356 19.3405 
650 2 46.1066 79.859 19.3405 
651 2 46.1066 81.9413 22.2854 
652 2 44.3033 78.8179 22.2854 
653 2 47.9099 76.7356 19.3405 
654 2 49.7133 79.859 19.3405 
655 2 49.7133 81.9413 22.2854 
656 2 47.9099 78.8179 22.2854 
657 2 51.5166 76.7356 19.3405 
658 2 53.3199 79.859 19.3405 
659 2 53.3199 81.9413 22.2854 
660 2 51.5166 78.8179 22.2854 
661 2 55.1232 76.7356 19.3405 
662 2 56.9265 79.859 19.3405 
663 2 56.9265 81.9413 22.2854 
664 2 55.1232 78.8179 22.2854 
665 2 58.7298 76.7356 19.3405 
666 2 60.5332 79.859 19.3405 
667 2 60.5332 81.9413 22.2854 
668 2 58.7298 78.8179 22.2854 
669 2 62.3365 76.7356 19.3405 
670 2 64.1398 79.859 19.3405 
671 2 64.1398 81.9413 22.2854 
672 2 62.3365 78.8179 22.2854 
673 2 65.9431 76.7356 19.3405 
674 2 67.7464 79.859 19.3405 
675 2 67.7464 81.9413 22.2854 
676 2 65.9431 78.8179 22.2854 
677 2 69.5497 76.7356 19.3405 
678 2 71.3531 79.859 19.3405 
679 2 71.3531 81.9413 22.2854 
680 2 69.5497 78.8179 22.2854 
681 2 11.8436 82.9825 19.3405 
682 2 13.6469 86.1059 19.3405 
683 2 13.6469 88.1882 22.2854 
684 2 11.8436 85.0648 22.2854 
685 2 15.4503 82.9825 19.3405 
686 2 17.2536 86.1059 19.3405 
687 2 17.2536 88.1882 22.2854 
688 2 15.4503 85.0648 22.2854 
689 2 19.0569 82.9825 19.3405 
690 2 20.8602 86.1059 19.3405 
691 2 20.8602 88.1882 22.2854 
692 2 19.0569 85.0648 22.2854 
693 2 22.6635 82.9825 19.3405 
694 2 24.4668 86.1059 19.3405 
695 2 24.4668 88.1882 22.2854 
696 2 22.6635 85.0648 22.2854 
697 2 26.2702 82.9825 19.3405 
698 2 28.0735 86.1059 19.3405 
699 2 28.0735 88.1882 22.2854 
700 2 26.2702 85.0648 22.2854 
701 2 29.8768 82.9825 19.3405 
702 2 31.6801 86.1059 19.3405 
703 2 31.6801 88.1882 22.2854 
704 2 29.8768 85.0648 22.2854 
705 2 33.4834 82.9825 19.3405 
706 2 35.2867 86.1059 19.3405 
707 2 35.2867 88.1882 22.2854 
708 2 33.4834 85.0648 22.2854 
709 2 37.0901 82.9825 19.3405 
710 2 38.8934 86.1059 19.3405 
711 2 38.8934 88.1882 22.2854 
712 2 37.0901 85.0648 22.2854 
713 2 40.6967 82.9825 19.3405 
714 2 42.5 86.1059 19.3405 
715 2 42.5 88.1882 22.2854 
716 2 40.6967 85.0648 22.2854 
717 2 44.3033 82.9825 19.3405 
718 2 46.1066 86.1059 19.3405 
719 2 46.1066 88.1882 22.2854 
720 2 44.3033 85.0648 22.2854 
721 2 47.9099 82.9825 19.3405 
722 2 49.7133 86.1059 19.3405 
723 2 49.7133 88.1882 22.2854 
724 2 47.9099 85.0648 22.2854 
725 2 51.5166 82.9825 19.3405 
726 2 53.3199 86.1059 19.3405 
727 2 53.3199 88.1882 22.2854 
728 2 51.5166 85.0648 22.2854 
729 2 55.1232 82.9825 19.3405 
730 2 56.9265 86.1059 19.3405 
731 2 56.9265 88.1882 22.2854 
732 2 55.1232 85.0648 22.2854 
733 2 58.7298 82.9825 19.3405 
734 2 60.5332 86.1059 19.3405 
735 2 60.5332 88.1882 22.2854 
736 2 58.7298 85.0648 22.2854 
737 2 62.3365 82.9825 19.3405 
738 2 64.1398 86.1059 19.3405 
739 2 64.1398 88.1882 22.2854 
740 2 62.3365 85.0648 22.2854 
741 2 65.9431 82.9825 19.3405 
742 2 67.7464 86.1059 19.3405 
743 2 67.7464 88.1882 22.2854 
744 2 65.9431 85.0648 22.2854 
745 2 69.5497 82.9825 19.3405 
746 2 71.3531 86.1059 19.3405 
747 2 71.3531 88.1882 22.2854 
748 2 69.5497 85.0648 22.2854 
749 2 11.8436 89.2293 19.3405 
750 2 13.6469 92.3528 19.3405 
751 2 13.6469 94.4351 22.2854 
752 2 11.8436 91.3116 22.2854 
753 2 15.4503 89.2293 19.3405 
754 2 17.2536 92.3528 19.3405 
755 2 17.2536 94.4351 22.2854 
756 2 15.4503 91.3116 22.2854 
757 2 19.0569 89.2293 19.3405 
758 2 20.8602 92.3528 19.3405 
759 2 20.8602 94.4351 22.2854 
760 2 19.0569 91.3116 22.2854 
761 2 22.6635 89.2293 19.3405 
762 2 24.4668 92.3528 19.3405 
763 2 24.4668 94.4351 22.2854 
764 2 22.6635 91.3116 22.2854 
765 2 26.2702 89.2293 19.3405 
766 2 28.0735 92.3528 19.3405 
767 2 28.0735 94.4351 22.2854 
768 2 26.2702 91.3116 22.2854 
769 2 29.8768 89.2293 19.3405 
770 2 31.6801 92.3528 19.3405 
771 2 31.6801 94.4351 22.2854 
772 2 29.8768 91.3116 22.2854 
773 2 33.4834 89.2293 19.3405 
774 2 35.2867 92.3528 19.3405 
775 2 35.2867 94.4351 22.2854 
776 2 33.4834 91.3116 22.2854 
777 2 37.0901 89.2293 19.3405 
778 2 38.8934 92.3528 19.3405 
779 2 38.8934 94.4351 22.2854 
780 2 37.0901 91.3116 22.2854 
781 2 40.6967 89.2293 19.3405 
782 2 42.5 92.3528 19.3405 
783 2 42.5 94.4351 22.2854 
784 2 40.6967 91.3116 22.2854 
785 2 44.3033 89.2293 19.3405 
786 2 46.1066 92.3528 19.3405 
787 2 46.1066 94.4351 22.2854 
788 2 44.3033 91.3116 22.2854 
789 2 47.9099 89.2293 19.3405 
790 2 49.7133 92.3528 19.3405 
791 2 49.7133 94.4351 22.2854 
792 2 47.9099 91.3116 22.2854 
793 2 51.5166 89.2293 19.3405 
794 2 53.3199 92.3528 19.3405 
795 2 53.3199 94.4351 22.2854 
796 2 51.5166 91.3116 22.2854 
797 2 55.1232 89.2293 19.3405 
798 2 56.9265 92.3528 19.3405 
799 2 56.9265 94.4351 22.2854 
800 2 55.1232 91.3116 22.2854 
801 2 58.7298 89.2293 19.3405 
802 2 60.5332 92.3528 19.3405 
803 2 60.5332 94.4351 22.2854 
804 2 58.7298 91.3116 22.2854 
805 2 62.3365 89.2293 19.3405 
806 2 64.1398 92.3528 19.3405 
807 2 64.1398 94.4351 22.2854 
808 2 62.3365 91.3116 22.2854 
809 2 65.9431 89.2293 19.3405 
810 2 67.7464 92.3528 19.3405 
811 2 67.7464 94.4351 22.2854 
812 2 65.9431 91.3116 22.2854 
813 2 69.5497 89.2293 19.3405 
814 2 71.3531 92.3528 19.3405 
815 2 71.3531 94.4351 22.2854 
816 2 69.5497 91.3116 22.2854 
817 2 11.8436 95.4762 19.3405 
818 2 13.6469 98.5996 19.3405 
819 2 13.6469 100.682 22.2854 
820 2 11.8436 97.5585 22.2854 
821 2 15.4503 95.4762 19.3405 
822 2 17.2536 98.5996 19.3405 
823 2 17.2536 100.682 22.2854 
824 2 15.4503 97.5585 22.2854 
825 2 19.0569 95.4762 19.3405 
826 2 20.8602 98.5996 19.3405 
827 2 20.8602 100.682 22.2854 
828 2 19.0569 97.5585 22.2854 
829 2 22.6635 95.4762 19.3405 
830 2 24.4668 98.5996 19.3405 
831 2 24.4668 100.682 22.2854 
832 2 22.6635 97.5585 22.2854 
833 2 26.2702 95.4762 19.3405 
834 2 28.0735 98.5996 19.3405 
835 2 28.0735 100.682 22.2854 
836 2 26.2702 97.5585 22.2854 
837 2 29.8768 95.4762 19.3405 
838 2 31.6801 98.5996 19.3405 
839 2 31.6801 100.682 22.2854 
840 2 29.8768 97.5585 22.2854 
841 2 33.4834 95.4762 19.3405 
842 2 35.2867 98.5996 19.3405 
843 2 35.2867 100.682 22.2854 
844 2 33.4834 97.5585 22.2854 
845 2 37.0901 95.4762 19.3405 
846 2 38.8934 98.5996 19.3405 
847 2 38.8934 100.682 22.2854 
848 2 37.0901 97.5585 22.2854 
849 2 40.6967 95.4762 19.3405 
850 2 42.5 98.5996 19.3405 
851 2 42.5 100.682 22.2854 
852 2 40.6967 97.5585 22.2854 
853 2 44.3033 95.4762 19.3405 
854 2 46.1066 98.5996 19.3405 
855 2 46.1066 100.682 22.2854 
856 2 44.3033 97.5585 22.2854 
857 2 47.9099 95.4762 19.3405 
858 2 49.7133 98.5996 19.3405 
859 2 49.7133 100.682 22.2854 
860 2 47.9099 97.5585 22.2854 
861 2 51.5166 95.4762 19.3405 
862 2 53.3199 98.5996 19.3405 
863 2 53.3199 100.682 22.2854 
864 2 51.5166 97.5585 22.2854 
865 2 55.1232 95.4762 19.3405 
866 2 56.9265 98.5996 19.3405 
867 2 56.9265 100.682 22.2854 
868 2 55.1232 97.5585 22.2854 
869 2 58.7298 95.4762 19.3405 
870 2 60.5332 98.5996 19.3405 
871 2 60.5332 100.682 22.2854 
872 2 58.7298 97.5585 22.2854 
873 2 62.3365 95.4762 19.3405 
874 2 64.1398 98.5996 19.3405 
875 2 64.1398 100.682 22.2854 
876 2 62.3365 97.5585 22.2854 
877 2 65.9431 95.4762 19.3405 
878 2 67.7464 98.5996 19.3405 
879 2 67.7464 100.682 22.2854 
880 2 65.9431 97.5585 22.2854 
881 2 69.5497 95.4762 19.3405 
882 2 71.3531 98.5996 19.3405 
883 2 71.3531 100.682 22.2854 
884 2 69.5497 97.5585 22.2854 
885 2 11.8436 101.723 19.3405 
886 2 13.6469 104.847 19.3405 
887 2 13.6469 106.929 22.2854 
888 2 11.8436 103.805 22.2854 
889 2 15.4503 101.723 19.3405 
890 2 17.2536 104.847 19.3405 
891 2 17.2536 106.929 22.2854 
892 2 15.4503 103.805 22.2854 
893 2 19.0569 101.723 19.3405 
894 2 20.8602 104.847 19.3405 
895 2 20.8602 106.929 22.2854 
896 2 19.0569 103.805 22.2854 
897 2 22.6635 101.723 19.3405 
898 2 24.4668 104.847 19.3405 
899 2 24.4668 106.929 22.2854 
900 2 22.6635 103.805 22.2854 
901 2 26.2702 101.723 19.3405 
902 2 28.0735 104.847 19.3405 
903 2 28.0735 106.929 22.2854 
904 2 26.2702 103.805 22.2854 
905 2 29.8768 101.723 19.3405 
906 2 31.6801 104.847 19.3405 
907 2 31.6801 106.929 22.2854 
908 2 29.8768 103.805 22.2854 
909 2 33.4834 101.723 19.3405 
910 2 35.2867 104.847 19.3405 
911 2 35.2867 106.929 22.2854 
912 2 33.4834 103.805 22.2854 
913 2 37.0901 101.723 19.3405 
914 2 38.8934 104.847 19.3405 
915 2 38.8934 106.929 22.2854 
916 2 37.0901 103.805 22.2854 
917 2 40.6967 101.723 19.3405 
918 2 42.5 104.847 19.3405 
919 2 42.5 106.929 22.2854 
920 2 40.6967 103.805 22.2854 
921 2 44.3033 101.723 19.3405 
922 2 46.1066 104.847 19.3405 
923 2 46.1066 106.929 22.2854 
924 2 44.3033 103.805 22.2854 
925 2 47.9099 101.723 19.3405 
926 2 49.7133 104.847 19.3405 
927 2 49.7133 106.929 22.2854 
928 2 47.9099 103.805 22.2854 
929 2 51.5166 101.723 19.3405 
930 2 53.3199 104.847 19.3405 
931 2 53.3199 106.929 22.2854 
932 2 51.5166 103.805 22.2854 
933 2 55.1232 101.723 19.3405 
934 2 56.9265 104.847 19.3405 
935 2 56.9265 106.929 22.2854 
936 2 55.1232 103.805 22.2854 
937 2 58.7298 101.723 19.3405 
938 2 60.5332 104.847 19.3405 
939 2 60.5332 106.929 22.2854 
940 2 58.7298 103.805 22.2854 
941 2 62.3365 101.723 19.3405 
942 2 64.1398 104.847 19.3405 
943 2 64.1398 106.929 22.2854 
944 2 62.3365 103.805 22.2854 
945 2 65.9431 101.723 19.3405 
946 2 67.7464 104.847 19.3405 
947 2 67.7464 106.929 22.2854 
948 2 65.9431 103.805 22.2854 
949 2 69.5497 101.723 19.3405 
950 2 71.3531 104.847 19.3405 
951 2 71.3531 106.929 22.2854 
952 2 69.5497 103.805 22.2854 
953 2 11.8436 107.97 19.3405 
954 2 13.6469 111.093 19.3405 
955 2 13.6469 113.176 22.2854 
956 2 11.8436 110.052 22.2854 
957 2 15.4503 107.97 19.3405 
958 2 17.2536 111.093 19.3405 
959 2 17.2536 113.176 22.2854 
960 2 15.4503 110.052 22.2854 
961 2 19.0569 107.97 19.3405 
962 2 20.8602 111.093 19.3405 
963 2 20.8602 113.176 22.2854 
964 2 19.0569 110.052 22.2854 
965 2 22.6635 107.97 19.3405 
966 2 24.4668 111.093 19.3405 
967 2 24.4668 113.176 22.2854 
968 2 22.6635 110.052 22.2854 
969 2 26.2702 107.97 19.3405 