ITEM: TIMESTEP
15
ITEM: NUMBER OF ATOMS
9826
ITEM: BOX BOUNDS pp pp pp
-2.7376546600680149e+00 8.7737654660068074e+01
-2.7376546600680149e+00 8.7737654660068074e+01
-2.7376546600680149e+00 8.7737654660068074e+01
ITEM: ATOMS id type xu yu zu 
1 1 -2.73765 -2.73765 -2.73765 
2 1 -0.0766162 -0.0766162 -0.0766162 
3 1 2.58442 -2.73765 -2.73765 
4 1 5.24546 -0.0766162 -0.0766162 
5 1 7.9065 -2.73765 -2.73765 
6 1 10.5675 -0.0766162 -0.0766162 
7 1 13.2286 -2.73765 -2.73765 
8 1 15.8896 -0.0766162 -0.0766162 
9 1 18.5507 -2.73765 -2.73765 
10 1 21.2117 -0.0766162 -0.0766162 
11 1 23.8727 -2.73765 -2.73765 
12 1 26.5338 -0.0766162 -0.0766162 
13 1 29.1948 -2.73765 -2.73765 
14 1 31.8558 -0.0766162 -0.0766162 
15 1 34.5169 -2.73765 -2.73765 
16 1 37.1779 -0.0766162 -0.0766162 
17 1 39.839 -2.73765 -2.73765 
18 1 42.5 -0.0766162 -0.0766162 
19 1 45.161 -2.73765 -2.73765 
20 1 47.8221 -0.0766162 -0.0766162 
21 1 50.4831 -2.73765 -2.73765 
22 1 53.1442 -0.0766162 -0.0766162 
23 1 55.8052 -2.73765 -2.73765 
24 1 58.4662 -0.0766162 -0.0766162 
25 1 61.1273 -2.73765 -2.73765 
26 1 63.7883 -0.0766162 -0.0766162 
27 1 66.4493 -2.73765 -2.73765 
28 1 69.1104 -0.0766162 -0.0766162 
29 1 71.7714 -2.73765 -2.73765 
30 1 74.4325 -0.0766162 -0.0766162 
31 1 77.0935 -2.73765 -2.73765 
32 1 79.7545 -0.0766162 -0.0766162 
33 1 82.4156 -2.73765 -2.73765 
34 1 85.0766 -0.0766162 -0.0766162 
35 1 -2.73765 2.58442 -2.73765 
36 1 -0.0766162 5.24546 -0.0766162 
37 1 2.58442 2.58442 -2.73765 
38 1 5.24546 5.24546 -0.0766162 
39 1 7.9065 2.58442 -2.73765 
40 1 10.5675 5.24546 -0.0766162 
41 1 13.2286 2.58442 -2.73765 
42 1 15.8896 5.24546 -0.0766162 
43 1 18.5507 2.58442 -2.73765 
44 1 21.2117 5.24546 -0.0766162 
45 1 23.8727 2.58442 -2.73765 
46 1 26.5338 5.24546 -0.0766162 
47 1 29.1948 2.58442 -2.73765 
48 1 31.8558 5.24546 -0.0766162 
49 1 34.5169 2.58442 -2.73765 
50 1 37.1779 5.24546 -0.0766162 
51 1 39.839 2.58442 -2.73765 
52 1 42.5 5.24546 -0.0766162 
53 1 45.161 2.58442 -2.73765 
54 1 47.8221 5.24546 -0.0766162 
55 1 50.4831 2.58442 -2.73765 
56 1 53.1442 5.24546 -0.0766162 
57 1 55.8052 2.58442 -2.73765 
58 1 58.4662 5.24546 -0.0766162 
59 1 61.1273 2.58442 -2.73765 
60 1 63.7883 5.24546 -0.0766162 
61 1 66.4493 2.58442 -2.73765 
62 1 69.1104 5.24546 -0.0766162 
63 1 71.7714 2.58442 -2.73765 
64 1 74.4325 5.24546 -0.0766162 
65 1 77.0935 2.58442 -2.73765 
66 1 79.7545 5.24546 -0.0766162 
67 1 82.4156 2.58442 -2.73765 
68 1 85.0766 5.24546 -0.0766162 
69 1 -2.73765 7.9065 -2.73765 
70 1 -0.0766162 10.5675 -0.0766162 
71 1 2.58442 7.9065 -2.73765 
72 1 5.24546 10.5675 -0.0766162 
73 1 7.9065 7.9065 -2.73765 
74 1 10.5675 10.5675 -0.0766162 
75 1 13.2286 7.9065 -2.73765 
76 1 15.8896 10.5675 -0.0766162 
77 1 18.5507 7.9065 -2.73765 
78 1 21.2117 10.5675 -0.0766162 
79 1 23.8727 7.9065 -2.73765 
80 1 26.5338 10.5675 -0.0766162 
81 1 29.1948 7.9065 -2.73765 
82 1 31.8558 10.5675 -0.0766162 
83 1 34.5169 7.9065 -2.73765 
84 1 37.1779 10.5675 -0.0766162 
85 1 39.839 7.9065 -2.73765 
86 1 42.5 10.5675 -0.0766162 
87 1 45.161 7.9065 -2.73765 
88 1 47.8221 10.5675 -0.0766162 
89 1 50.4831 7.9065 -2.73765 
90 1 53.1442 10.5675 -0.0766162 
91 1 55.8052 7.9065 -2.73765 
92 1 58.4662 10.5675 -0.0766162 
93 1 61.1273 7.9065 -2.73765 
94 1 63.7883 10.5675 -0.0766162 
95 1 66.4493 7.9065 -2.73765 
96 1 69.1104 10.5675 -0.0766162 
97 1 71.7714 7.9065 -2.73765 
98 1 74.4325 10.5675 -0.0766162 
99 1 77.0935 7.9065 -2.73765 
100 1 79.7545 10.5675 -0.0766162 
101 1 82.4156 7.9065 -2.73765 
102 1 85.0766 10.5675 -0.0766162 
103 1 -2.73765 13.2286 -2.73765 
104 1 -0.0766162 15.8896 -0.0766162 
105 1 2.58442 13.2286 -2.73765 
106 1 5.24546 15.8896 -0.0766162 
107 1 7.9065 13.2286 -2.73765 
108 1 10.5675 15.8896 -0.0766162 
109 1 13.2286 13.2286 -2.73765 
110 1 15.8896 15.8896 -0.0766162 
111 1 18.5507 13.2286 -2.73765 
112 1 21.2117 15.8896 -0.0766162 
113 1 23.8727 13.2286 -2.73765 
114 1 26.5338 15.8896 -0.0766162 
115 1 29.1948 13.2286 -2.73765 
116 1 31.8558 15.8896 -0.0766162 
117 1 34.5169 13.2286 -2.73765 
118 1 37.1779 15.8896 -0.0766162 
119 1 39.839 13.2286 -2.73765 
120 1 42.5 15.8896 -0.0766162 
121 1 45.161 13.2286 -2.73765 
122 1 47.8221 15.8896 -0.0766162 
123 1 50.4831 13.2286 -2.73765 
124 1 53.1442 15.8896 -0.0766162 
125 1 55.8052 13.2286 -2.73765 
126 1 58.4662 15.8896 -0.0766162 
127 1 61.1273 13.2286 -2.73765 
128 1 63.7883 15.8896 -0.0766162 
129 1 66.4493 13.2286 -2.73765 
130 1 69.1104 15.8896 -0.0766162 
131 1 71.7714 13.2286 -2.73765 
132 1 74.4325 15.8896 -0.0766162 
133 1 77.0935 13.2286 -2.73765 
134 1 79.7545 15.8896 -0.0766162 
135 1 82.4156 13.2286 -2.73765 
136 1 85.0766 15.8896 -0.0766162 
137 1 -2.73765 18.5507 -2.73765 
138 1 -0.0766162 21.2117 -0.0766162 
139 1 2.58442 18.5507 -2.73765 
140 1 5.24546 21.2117 -0.0766162 
141 1 7.9065 18.5507 -2.73765 
142 1 10.5675 21.2117 -0.0766162 
143 1 13.2286 18.5507 -2.73765 
144 1 15.8896 21.2117 -0.0766162 
145 1 18.5507 18.5507 -2.73765 
146 1 21.2117 21.2117 -0.0766162 
147 1 23.8727 18.5507 -2.73765 
148 1 26.5338 21.2117 -0.0766162 
149 1 29.1948 18.5507 -2.73765 
150 1 31.8558 21.2117 -0.0766162 
151 1 34.5169 18.5507 -2.73765 
152 1 37.1779 21.2117 -0.0766162 
153 1 39.839 18.5507 -2.73765 
154 1 42.5 21.2117 -0.0766162 
155 1 45.161 18.5507 -2.73765 
156 1 47.8221 21.2117 -0.0766162 
157 1 50.4831 18.5507 -2.73765 
158 1 53.1442 21.2117 -0.0766162 
159 1 55.8052 18.5507 -2.73765 
160 1 58.4662 21.2117 -0.0766162 
161 1 61.1273 18.5507 -2.73765 
162 1 63.7883 21.2117 -0.0766162 
163 1 66.4493 18.5507 -2.73765 
164 1 69.1104 21.2117 -0.0766162 
165 1 71.7714 18.5507 -2.73765 
166 1 74.4325 21.2117 -0.0766162 
167 1 77.0935 18.5507 -2.73765 
168 1 79.7545 21.2117 -0.0766162 
169 1 82.4156 18.5507 -2.73765 
170 1 85.0766 21.2117 -0.0766162 
171 1 -2.73765 23.8727 -2.73765 
172 1 -0.0766162 26.5338 -0.0766162 
173 1 2.58442 23.8727 -2.73765 
174 1 5.24546 26.5338 -0.0766162 
175 1 7.9065 23.8727 -2.73765 
176 1 10.5675 26.5338 -0.0766162 
177 1 13.2286 23.8727 -2.73765 
178 1 15.8896 26.5338 -0.0766162 
179 1 18.5507 23.8727 -2.73765 
180 1 21.2117 26.5338 -0.0766162 
181 1 23.8727 23.8727 -2.73765 
182 1 26.5338 26.5338 -0.0766162 
183 1 29.1948 23.8727 -2.73765 
184 1 31.8558 26.5338 -0.0766162 
185 1 34.5169 23.8727 -2.73765 
186 1 37.1779 26.5338 -0.0766162 
187 1 39.839 23.8727 -2.73765 
188 1 42.5 26.5338 -0.0766162 
189 1 45.161 23.8727 -2.73765 
190 1 47.8221 26.5338 -0.0766162 
191 1 50.4831 23.8727 -2.73765 
192 1 53.1442 26.5338 -0.0766162 
193 1 55.8052 23.8727 -2.73765 
194 1 58.4662 26.5338 -0.0766162 
195 1 61.1273 23.8727 -2.73765 
196 1 63.7883 26.5338 -0.0766162 
197 1 66.4493 23.8727 -2.73765 
198 1 69.1104 26.5338 -0.0766162 
199 1 71.7714 23.8727 -2.73765 
200 1 74.4325 26.5338 -0.0766162 
201 1 77.0935 23.8727 -2.73765 
202 1 79.7545 26.5338 -0.0766162 
203 1 82.4156 23.8727 -2.73765 
204 1 85.0766 26.5338 -0.0766162 
205 1 -2.73765 29.1948 -2.73765 
206 1 -0.0766162 31.8558 -0.0766162 
207 1 2.58442 29.1948 -2.73765 
208 1 5.24546 31.8558 -0.0766162 
209 1 7.9065 29.1948 -2.73765 
210 1 10.5675 31.8558 -0.0766162 
211 1 13.2286 29.1948 -2.73765 
212 1 15.8896 31.8558 -0.0766162 
213 1 18.5507 29.1948 -2.73765 
214 1 21.2117 31.8558 -0.0766162 
215 1 23.8727 29.1948 -2.73765 
216 1 26.5338 31.8558 -0.0766162 
217 1 29.1948 29.1948 -2.73765 
218 1 31.8558 31.8558 -0.0766162 
219 1 34.5169 29.1948 -2.73765 
220 1 37.1779 31.8558 -0.0766162 
221 1 39.839 29.1948 -2.73765 
222 1 42.5 31.8558 -0.0766162 
223 1 45.161 29.1948 -2.73765 
224 1 47.8221 31.8558 -0.0766162 
225 1 50.4831 29.1948 -2.73765 
226 1 53.1442 31.8558 -0.0766162 
227 1 55.8052 29.1948 -2.73765 
228 1 58.4662 31.8558 -0.0766162 
229 1 61.1273 29.1948 -2.73765 
230 1 63.7883 31.8558 -0.0766162 
231 1 66.4493 29.1948 -2.73765 
232 1 69.1104 31.8558 -0.0766162 
233 1 71.7714 29.1948 -2.73765 
234 1 74.4325 31.8558 -0.0766162 
235 1 77.0935 29.1948 -2.73765 
236 1 79.7545 31.8558 -0.0766162 
237 1 82.4156 29.1948 -2.73765 
238 1 85.0766 31.8558 -0.0766162 
239 1 -2.73765 34.5169 -2.73765 
240 1 -0.0766162 37.1779 -0.0766162 
241 1 2.58442 34.5169 -2.73765 
242 1 5.24546 37.1779 -0.0766162 
243 1 7.9065 34.5169 -2.73765 
244 1 10.5675 37.1779 -0.0766162 
245 1 13.2286 34.5169 -2.73765 
246 1 15.8896 37.1779 -0.0766162 
247 1 18.5507 34.5169 -2.73765 
248 1 21.2117 37.1779 -0.0766162 
249 1 23.8727 34.5169 -2.73765 
250 1 26.5338 37.1779 -0.0766162 
251 1 29.1948 34.5169 -2.73765 
252 1 31.8558 37.1779 -0.0766162 
253 1 34.5169 34.5169 -2.73765 
254 1 37.1779 37.1779 -0.0766162 
255 1 39.839 34.5169 -2.73765 
256 1 42.5 37.1779 -0.0766162 
257 1 45.161 34.5169 -2.73765 
258 1 47.8221 37.1779 -0.0766162 
259 1 50.4831 34.5169 -2.73765 
260 1 53.1442 37.1779 -0.0766162 
261 1 55.8052 34.5169 -2.73765 
262 1 58.4662 37.1779 -0.0766162 
263 1 61.1273 34.5169 -2.73765 
264 1 63.7883 37.1779 -0.0766162 
265 1 66.4493 34.5169 -2.73765 
266 1 69.1104 37.1779 -0.0766162 
267 1 71.7714 34.5169 -2.73765 
268 1 74.4325 37.1779 -0.0766162 
269 1 77.0935 34.5169 -2.73765 
270 1 79.7545 37.1779 -0.0766162 
271 1 82.4156 34.5169 -2.73765 
272 1 85.0766 37.1779 -0.0766162 
273 1 -2.73765 39.839 -2.73765 
274 1 -0.0766162 42.5 -0.0766162 
275 1 2.58442 39.839 -2.73765 
276 1 5.24546 42.5 -0.0766162 
277 1 7.9065 39.839 -2.73765 
278 1 10.5675 42.5 -0.0766162 
279 1 13.2286 39.839 -2.73765 
280 1 15.8896 42.5 -0.0766162 
281 1 18.5507 39.839 -2.73765 
282 1 21.2117 42.5 -0.0766162 
283 1 23.8727 39.839 -2.73765 
284 1 26.5338 42.5 -0.0766162 
285 1 29.1948 39.839 -2.73765 
286 1 31.8558 42.5 -0.0766162 
287 1 34.5169 39.839 -2.73765 
288 1 37.1779 42.5 -0.0766162 
289 1 39.839 39.839 -2.73765 
290 1 42.5 42.5 -0.0766162 
291 1 45.161 39.839 -2.73765 
292 1 47.8221 42.5 -0.0766162 
293 1 50.4831 39.839 -2.73765 
294 1 53.1442 42.5 -0.0766162 
295 1 55.8052 39.839 -2.73765 
296 1 58.4662 42.5 -0.0766162 
297 1 61.1273 39.839 -2.73765 
298 1 63.7883 42.5 -0.0766162 
299 1 66.4493 39.839 -2.73765 
300 1 69.1104 42.5 -0.0766162 
301 1 71.7714 39.839 -2.73765 
302 1 74.4325 42.5 -0.0766162 
303 1 77.0935 39.839 -2.73765 
304 1 79.7545 42.5 -0.0766162 
305 1 82.4156 39.839 -2.73765 
306 1 85.0766 42.5 -0.0766162 
307 1 -2.73765 45.161 -2.73765 
308 1 -0.0766162 47.8221 -0.0766162 
309 1 2.58442 45.161 -2.73765 
310 1 5.24546 47.8221 -0.0766162 
311 1 7.9065 45.161 -2.73765 
312 1 10.5675 47.8221 -0.0766162 
313 1 13.2286 45.161 -2.73765 
314 1 15.8896 47.8221 -0.0766162 
315 1 18.5507 45.161 -2.73765 
316 1 21.2117 47.8221 -0.0766162 
317 1 23.8727 45.161 -2.73765 
318 1 26.5338 47.8221 -0.0766162 
319 1 29.1948 45.161 -2.73765 
320 1 31.8558 47.8221 -0.0766162 
321 1 34.5169 45.161 -2.73765 
322 1 37.1779 47.8221 -0.0766162 
323 1 39.839 45.161 -2.73765 
324 1 42.5 47.8221 -0.0766162 
325 1 45.161 45.161 -2.73765 
326 1 47.8221 47.8221 -0.0766162 
327 1 50.4831 45.161 -2.73765 
328 1 53.1442 47.8221 -0.0766162 
329 1 55.8052 45.161 -2.73765 
330 1 58.4662 47.8221 -0.0766162 
331 1 61.1273 45.161 -2.73765 
332 1 63.7883 47.8221 -0.0766162 
333 1 66.4493 45.161 -2.73765 
334 1 69.1104 47.8221 -0.0766162 
335 1 71.7714 45.161 -2.73765 
336 1 74.4325 47.8221 -0.0766162 
337 1 77.0935 45.161 -2.73765 
338 1 79.7545 47.8221 -0.0766162 
339 1 82.4156 45.161 -2.73765 
340 1 85.0766 47.8221 -0.0766162 
341 1 -2.73765 50.4831 -2.73765 
342 1 -0.0766162 53.1442 -0.0766162 
343 1 2.58442 50.4831 -2.73765 
344 1 5.24546 53.1442 -0.0766162 
345 1 7.9065 50.4831 -2.73765 
346 1 10.5675 53.1442 -0.0766162 
347 1 13.2286 50.4831 -2.73765 
348 1 15.8896 53.1442 -0.0766162 
349 1 18.5507 50.4831 -2.73765 
350 1 21.2117 53.1442 -0.0766162 
351 1 23.8727 50.4831 -2.73765 
352 1 26.5338 53.1442 -0.0766162 
353 1 29.1948 50.4831 -2.73765 
354 1 31.8558 53.1442 -0.0766162 
355 1 34.5169 50.4831 -2.73765 
356 1 37.1779 53.1442 -0.0766162 
357 1 39.839 50.4831 -2.73765 
358 1 42.5 53.1442 -0.0766162 
359 1 45.161 50.4831 -2.73765 
360 1 47.8221 53.1442 -0.0766162 
361 1 50.4831 50.4831 -2.73765 
362 1 53.1442 53.1442 -0.0766162 
363 1 55.8052 50.4831 -2.73765 
364 1 58.4662 53.1442 -0.0766162 
365 1 61.1273 50.4831 -2.73765 
366 1 63.7883 53.1442 -0.0766162 
367 1 66.4493 50.4831 -2.73765 
368 1 69.1104 53.1442 -0.0766162 
369 1 71.7714 50.4831 -2.73765 
370 1 74.4325 53.1442 -0.0766162 
371 1 77.0935 50.4831 -2.73765 
372 1 79.7545 53.1442 -0.0766162 
373 1 82.4156 50.4831 -2.73765 
374 1 85.0766 53.1442 -0.0766162 
375 1 -2.73765 55.8052 -2.73765 
376 1 -0.0766162 58.4662 -0.0766162 
377 1 2.58442 55.8052 -2.73765 
378 1 5.24546 58.4662 -0.0766162 
379 1 7.9065 55.8052 -2.73765 
380 1 10.5675 58.4662 -0.0766162 
381 1 13.2286 55.8052 -2.73765 
382 1 15.8896 58.4662 -0.0766162 
383 1 18.5507 55.8052 -2.73765 
384 1 21.2117 58.4662 -0.0766162 
385 1 23.8727 55.8052 -2.73765 
386 1 26.5338 58.4662 -0.0766162 
387 1 29.1948 55.8052 -2.73765 
388 1 31.8558 58.4662 -0.0766162 
389 1 34.5169 55.8052 -2.73765 
390 1 37.1779 58.4662 -0.0766162 
391 1 39.839 55.8052 -2.73765 
392 1 42.5 58.4662 -0.0766162 
393 1 45.161 55.8052 -2.73765 
394 1 47.8221 58.4662 -0.0766162 
395 1 50.4831 55.8052 -2.73765 
396 1 53.1442 58.4662 -0.0766162 
397 1 55.8052 55.8052 -2.73765 
398 1 58.4662 58.4662 -0.0766162 
399 1 61.1273 55.8052 -2.73765 
400 1 63.7883 58.4662 -0.0766162 
401 1 66.4493 55.8052 -2.73765 
402 1 69.1104 58.4662 -0.0766162 
403 1 71.7714 55.8052 -2.73765 
404 1 74.4325 58.4662 -0.0766162 
405 1 77.0935 55.8052 -2.73765 
406 1 79.7545 58.4662 -0.0766162 
407 1 82.4156 55.8052 -2.73765 
408 1 85.0766 58.4662 -0.0766162 
409 1 -2.73765 61.1273 -2.73765 
410 1 -0.0766162 63.7883 -0.0766162 
411 1 2.58442 61.1273 -2.73765 
412 1 5.24546 63.7883 -0.0766162 
413 1 7.9065 61.1273 -2.73765 
414 1 10.5675 63.7883 -0.0766162 
415 1 13.2286 61.1273 -2.73765 
416 1 15.8896 63.7883 -0.0766162 
417 1 18.5507 61.1273 -2.73765 
418 1 21.2117 63.7883 -0.0766162 
419 1 23.8727 61.1273 -2.73765 
420 1 26.5338 63.7883 -0.0766162 
421 1 29.1948 61.1273 -2.73765 
422 1 31.8558 63.7883 -0.0766162 
423 1 34.5169 61.1273 -2.73765 
424 1 37.1779 63.7883 -0.0766162 
425 1 39.839 61.1273 -2.73765 
426 1 42.5 63.7883 -0.0766162 
427 1 45.161 61.1273 -2.73765 
428 1 47.8221 63.7883 -0.0766162 
429 1 50.4831 61.1273 -2.73765 
430 1 53.1442 63.7883 -0.0766162 
431 1 55.8052 61.1273 -2.73765 
432 1 58.4662 63.7883 -0.0766162 
433 1 61.1273 61.1273 -2.73765 
434 1 63.7883 63.7883 -0.0766162 
435 1 66.4493 61.1273 -2.73765 
436 1 69.1104 63.7883 -0.0766162 
437 1 71.7714 61.1273 -2.73765 
438 1 74.4325 63.7883 -0.0766162 
439 1 77.0935 61.1273 -2.73765 
440 1 79.7545 63.7883 -0.0766162 
441 1 82.4156 61.1273 -2.73765 
442 1 85.0766 63.7883 -0.0766162 
443 1 -2.73765 66.4493 -2.73765 
444 1 -0.0766162 69.1104 -0.0766162 
445 1 2.58442 66.4493 -2.73765 
446 1 5.24546 69.1104 -0.0766162 
447 1 7.9065 66.4493 -2.73765 
448 1 10.5675 69.1104 -0.0766162 
449 1 13.2286 66.4493 -2.73765 
450 1 15.8896 69.1104 -0.0766162 
451 1 18.5507 66.4493 -2.73765 
452 1 21.2117 69.1104 -0.0766162 
453 1 23.8727 66.4493 -2.73765 
454 1 26.5338 69.1104 -0.0766162 
455 1 29.1948 66.4493 -2.73765 
456 1 31.8558 69.1104 -0.0766162 
457 1 34.5169 66.4493 -2.73765 
458 1 37.1779 69.1104 -0.0766162 
459 1 39.839 66.4493 -2.73765 
460 1 42.5 69.1104 -0.0766162 
461 1 45.161 66.4493 -2.73765 
462 1 47.8221 69.1104 -0.0766162 
463 1 50.4831 66.4493 -2.73765 
464 1 53.1442 69.1104 -0.0766162 
465 1 55.8052 66.4493 -2.73765 
466 1 58.4662 69.1104 -0.0766162 
467 1 61.1273 66.4493 -2.73765 
468 1 63.7883 69.1104 -0.0766162 
469 1 66.4493 66.4493 -2.73765 
470 1 69.1104 69.1104 -0.0766162 
471 1 71.7714 66.4493 -2.73765 
472 1 74.4325 69.1104 -0.0766162 
473 1 77.0935 66.4493 -2.73765 
474 1 79.7545 69.1104 -0.0766162 
475 1 82.4156 66.4493 -2.73765 
476 1 85.0766 69.1104 -0.0766162 
477 1 -2.73765 71.7714 -2.73765 
478 1 -0.0766162 74.4325 -0.0766162 
479 1 2.58442 71.7714 -2.73765 
480 1 5.24546 74.4325 -0.0766162 
481 1 7.9065 71.7714 -2.73765 
482 1 10.5675 74.4325 -0.0766162 
483 1 13.2286 71.7714 -2.73765 
484 1 15.8896 74.4325 -0.0766162 
485 1 18.5507 71.7714 -2.73765 
486 1 21.2117 74.4325 -0.0766162 
487 1 23.8727 71.7714 -2.73765 
488 1 26.5338 74.4325 -0.0766162 
489 1 29.1948 71.7714 -2.73765 
490 1 31.8558 74.4325 -0.0766162 
491 1 34.5169 71.7714 -2.73765 
492 1 37.1779 74.4325 -0.0766162 
493 1 39.839 71.7714 -2.73765 
494 1 42.5 74.4325 -0.0766162 
495 1 45.161 71.7714 -2.73765 
496 1 47.8221 74.4325 -0.0766162 
497 1 50.4831 71.7714 -2.73765 
498 1 53.1442 74.4325 -0.0766162 
499 1 55.8052 71.7714 -2.73765 
500 1 58.4662 74.4325 -0.0766162 
501 1 61.1273 71.7714 -2.73765 
502 1 63.7883 74.4325 -0.0766162 
503 1 66.4493 71.7714 -2.73765 
504 1 69.1104 74.4325 -0.0766162 
505 1 71.7714 71.7714 -2.73765 
506 1 74.4325 74.4325 -0.0766162 
507 1 77.0935 71.7714 -2.73765 
508 1 79.7545 74.4325 -0.0766162 
509 1 82.4156 71.7714 -2.73765 
510 1 85.0766 74.4325 -0.0766162 
511 1 -2.73765 77.0935 -2.73765 
512 1 -0.0766162 79.7545 -0.0766162 
513 1 2.58442 77.0935 -2.73765 
514 1 5.24546 79.7545 -0.0766162 
515 1 7.9065 77.0935 -2.73765 
516 1 10.5675 79.7545 -0.0766162 
517 1 13.2286 77.0935 -2.73765 
518 1 15.8896 79.7545 -0.0766162 
519 1 18.5507 77.0935 -2.73765 
520 1 21.2117 79.7545 -0.0766162 
521 1 23.8727 77.0935 -2.73765 
522 1 26.5338 79.7545 -0.0766162 
523 1 29.1948 77.0935 -2.73765 
524 1 31.8558 79.7545 -0.0766162 
525 1 34.5169 77.0935 -2.73765 
526 1 37.1779 79.7545 -0.0766162 
527 1 39.839 77.0935 -2.73765 
528 1 42.5 79.7545 -0.0766162 
529 1 45.161 77.0935 -2.73765 
530 1 47.8221 79.7545 -0.0766162 
531 1 50.4831 77.0935 -2.73765 
532 1 53.1442 79.7545 -0.0766162 
533 1 55.8052 77.0935 -2.73765 
534 1 58.4662 79.7545 -0.0766162 
535 1 61.1273 77.0935 -2.73765 
536 1 63.7883 79.7545 -0.0766162 
537 1 66.4493 77.0935 -2.73765 
538 1 69.1104 79.7545 -0.0766162 
539 1 71.7714 77.0935 -2.73765 
540 1 74.4325 79.7545 -0.0766162 
541 1 77.0935 77.0935 -2.73765 
542 1 79.7545 79.7545 -0.0766162 
543 1 82.4156 77.0935 -2.73765 
544 1 85.0766 79.7545 -0.0766162 
545 1 -2.73765 82.4156 -2.73765 
546 1 -0.0766162 85.0766 -0.0766162 
547 1 2.58442 82.4156 -2.73765 
548 1 5.24546 85.0766 -0.0766162 
549 1 7.9065 82.4156 -2.73765 
550 1 10.5675 85.0766 -0.0766162 
551 1 13.2286 82.4156 -2.73765 
552 1 15.8896 85.0766 -0.0766162 
553 1 18.5507 82.4156 -2.73765 
554 1 21.2117 85.0766 -0.0766162 
555 1 23.8727 82.4156 -2.73765 
556 1 26.5338 85.0766 -0.0766162 
557 1 29.1948 82.4156 -2.73765 
558 1 31.8558 85.0766 -0.0766162 
559 1 34.5169 82.4156 -2.73765 
560 1 37.1779 85.0766 -0.0766162 
561 1 39.839 82.4156 -2.73765 
562 1 42.5 85.0766 -0.0766162 
563 1 45.161 82.4156 -2.73765 
564 1 47.8221 85.0766 -0.0766162 
565 1 50.4831 82.4156 -2.73765 
566 1 53.1442 85.0766 -0.0766162 
567 1 55.8052 82.4156 -2.73765 
568 1 58.4662 85.0766 -0.0766162 
569 1 61.1273 82.4156 -2.73765 
570 1 63.7883 85.0766 -0.0766162 
571 1 66.4493 82.4156 -2.73765 
572 1 69.1104 85.0766 -0.0766162 
573 1 71.7714 82.4156 -2.73765 
574 1 74.4325 85.0766 -0.0766162 
575 1 77.0935 82.4156 -2.73765 
576 1 79.7545 85.0766 -0.0766162 
577 1 82.4156 82.4156 -2.73765 
578 1 85.0766 85.0766 -0.0766162 
579 1 -2.73765 -2.73765 2.58442 
580 1 -0.0766162 -0.0766162 5.24546 
581 1 2.58442 -2.73765 2.58442 
582 1 5.24546 -0.0766162 5.24546 
583 1 7.9065 -2.73765 2.58442 
584 1 10.5675 -0.0766162 5.24546 
585 1 13.2286 -2.73765 2.58442 
586 1 15.8896 -0.0766162 5.24546 
587 1 18.5507 -2.73765 2.58442 
588 1 21.2117 -0.0766162 5.24546 
589 1 23.8727 -2.73765 2.58442 
590 1 26.5338 -0.0766162 5.24546 
591 1 29.1948 -2.73765 2.58442 
592 1 31.8558 -0.0766162 5.24546 
593 1 34.5169 -2.73765 2.58442 
594 1 37.1779 -0.0766162 5.24546 
595 1 39.839 -2.73765 2.58442 
596 1 42.5 -0.0766162 5.24546 
597 1 45.161 -2.73765 2.58442 
598 1 47.8221 -0.0766162 5.24546 
599 1 50.4831 -2.73765 2.58442 
600 1 53.1442 -0.0766162 5.24546 
601 1 55.8052 -2.73765 2.58442 
602 1 58.4662 -0.0766162 5.24546 
603 1 61.1273 -2.73765 2.58442 
604 1 63.7883 -0.0766162 5.24546 
605 1 66.4493 -2.73765 2.58442 
606 1 69.1104 -0.0766162 5.24546 
607 1 71.7714 -2.73765 2.58442 
608 1 74.4325 -0.0766162 5.24546 
609 1 77.0935 -2.73765 2.58442 
610 1 79.7545 -0.0766162 5.24546 
611 1 82.4156 -2.73765 2.58442 
612 1 85.0766 -0.0766162 5.24546 
613 1 -2.73765 2.58442 2.58442 
614 1 -0.0766162 5.24546 5.24546 
615 1 2.58442 2.58442 2.58442 
616 1 5.24546 5.24546 5.24546 
617 1 7.9065 2.58442 2.58442 
618 1 10.5675 5.24546 5.24546 
619 1 13.2286 2.58442 2.58442 
620 1 15.8896 5.24546 5.24546 
621 1 18.5507 2.58442 2.58442 
622 1 21.2117 5.24546 5.24546 
623 1 23.8727 2.58442 2.58442 
624 1 26.5338 5.24546 5.24546 
625 1 29.1948 2.58442 2.58442 
626 1 31.8558 5.24546 5.24546 
627 1 34.5169 2.58442 2.58442 
628 1 37.1779 5.24546 5.24546 
629 1 39.839 2.58442 2.58442 
630 1 42.5 5.24546 5.24546 
631 1 45.161 2.58442 2.58442 
632 1 47.8221 5.24546 5.24546 
633 1 50.4831 2.58442 2.58442 
634 1 53.1442 5.24546 5.24546 
635 1 55.8052 2.58442 2.58442 
636 1 58.4662 5.24546 5.24546 
637 1 61.1273 2.58442 2.58442 
638 1 63.7883 5.24546 5.24546 
639 1 66.4493 2.58442 2.58442 
640 1 69.1104 5.24546 5.24546 
641 1 71.7714 2.58442 2.58442 
642 1 74.4325 5.24546 5.24546 
643 1 77.0935 2.58442 2.58442 
644 1 79.7545 5.24546 5.24546 
645 1 82.4156 2.58442 2.58442 
646 1 85.0766 5.24546 5.24546 
647 1 -2.73765 7.9065 2.58442 
648 1 -0.0766162 10.5675 5.24546 
649 1 2.58442 7.9065 2.58442 
650 1 5.24546 10.5675 5.24546 
651 1 7.9065 7.9065 2.58442 
652 1 10.5675 10.5675 5.24546 
653 1 13.2286 7.9065 2.58442 
654 1 15.8896 10.5675 5.24546 
655 1 18.5507 7.9065 2.58442 
656 1 21.2117 10.5675 5.24546 
657 1 23.8727 7.9065 2.58442 
658 1 26.5338 10.5675 5.24546 
659 1 29.1948 7.9065 2.58442 
660 1 31.8558 10.5675 5.24546 
661 1 34.5169 7.9065 2.58442 
662 1 37.1779 10.5675 5.24546 
663 1 39.839 7.9065 2.58442 
664 1 42.5 10.5675 5.24546 
665 1 45.161 7.9065 2.58442 
666 1 47.8221 10.5675 5.24546 
667 1 50.4831 7.9065 2.58442 
668 1 53.1442 10.5675 5.24546 
669 1 55.8052 7.9065 2.58442 
670 1 58.4662 10.5675 5.24546 
671 1 61.1273 7.9065 2.58442 
672 1 63.7883 10.5675 5.24546 
673 1 66.4493 7.9065 2.58442 
674 1 69.1104 10.5675 5.24546 
675 1 71.7714 7.9065 2.58442 
676 1 74.4325 10.5675 5.24546 
677 1 77.0935 7.9065 2.58442 
678 1 79.7545 10.5675 5.24546 
679 1 82.4156 7.9065 2.58442 
680 1 85.0766 10.5675 5.24546 
681 1 -2.73765 13.2286 2.58442 
682 1 -0.0766162 15.8896 5.24546 
683 1 2.58442 13.2286 2.58442 
684 1 5.24546 15.8896 5.24546 
685 1 7.9065 13.2286 2.58442 
686 1 10.5675 15.8896 5.24546 
687 1 13.2286 13.2286 2.58442 
688 1 15.8896 15.8896 5.24546 
689 1 18.5507 13.2286 2.58442 
690 1 21.2117 15.8896 5.24546 
691 1 23.8727 13.2286 2.58442 
692 1 26.5338 15.8896 5.24546 
693 1 29.1948 13.2286 2.58442 
694 1 31.8558 15.8896 5.24546 
695 1 34.5169 13.2286 2.58442 
696 1 37.1779 15.8896 5.24546 
697 1 39.839 13.2286 2.58442 
698 1 42.5 15.8896 5.24546 
699 1 45.161 13.2286 2.58442 
700 1 47.8221 15.8896 5.24546 
701 1 50.4831 13.2286 2.58442 
702 1 53.1442 15.8896 5.24546 
703 1 55.8052 13.2286 2.58442 
704 1 58.4662 15.8896 5.24546 
705 1 61.1273 13.2286 2.58442 
706 1 63.7883 15.8896 5.24546 
707 1 66.4493 13.2286 2.58442 
708 1 69.1104 15.8896 5.24546 
709 1 71.7714 13.2286 2.58442 
710 1 74.4325 15.8896 5.24546 
711 1 77.0935 13.2286 2.58442 
712 1 79.7545 15.8896 5.24546 
713 1 82.4156 13.2286 2.58442 
714 1 85.0766 15.8896 5.24546 
715 1 -2.73765 18.5507 2.58442 
716 1 -0.0766162 21.2117 5.24546 
717 1 2.58442 18.5507 2.58442 
718 1 5.24546 21.2117 5.24546 
719 1 7.9065 18.5507 2.58442 
720 1 10.5675 21.2117 5.24546 
721 1 13.2286 18.5507 2.58442 
722 1 15.8896 21.2117 5.24546 
723 1 18.5507 18.5507 2.58442 
724 1 21.2117 21.2117 5.24546 
725 1 23.8727 18.5507 2.58442 
726 1 26.5338 21.2117 5.24546 
727 1 29.1948 18.5507 2.58442 
728 1 31.8558 21.2117 5.24546 
729 1 34.5169 18.5507 2.58442 
730 1 37.1779 21.2117 5.24546 
731 1 39.839 18.5507 2.58442 
732 1 42.5 21.2117 5.24546 
733 1 45.161 18.5507 2.58442 
734 1 47.8221 21.2117 5.24546 
735 1 50.4831 18.5507 2.58442 
736 1 53.1442 21.2117 5.24546 
737 1 55.8052 18.5507 2.58442 
738 1 58.4662 21.2117 5.24546 
739 1 61.1273 18.5507 2.58442 
740 1 63.7883 21.2117 5.24546 
741 1 66.4493 18.5507 2.58442 
742 1 69.1104 21.2117 5.24546 
743 1 71.7714 18.5507 2.58442 
744 1 74.4325 21.2117 5.24546 
745 1 77.0935 18.5507 2.58442 
746 1 79.7545 21.2117 5.24546 
747 1 82.4156 18.5507 2.58442 
748 1 85.0766 21.2117 5.24546 
749 1 -2.73765 23.8727 2.58442 
750 1 -0.0766162 26.5338 5.24546 
751 1 2.58442 23.8727 2.58442 
752 1 5.24546 26.5338 5.24546 
753 1 7.9065 23.8727 2.58442 
754 1 10.5675 26.5338 5.24546 
755 1 13.2286 23.8727 2.58442 
756 1 15.8896 26.5338 5.24546 
757 1 18.5507 23.8727 2.58442 
758 1 21.2117 26.5338 5.24546 
759 1 23.8727 23.8727 2.58442 
760 1 26.5338 26.5338 5.24546 
761 1 29.1948 23.8727 2.58442 
762 1 31.8558 26.5338 5.24546 
763 1 34.5169 23.8727 2.58442 
764 1 37.1779 26.5338 5.24546 
765 1 39.839 23.8727 2.58442 
766 1 42.5 26.5338 5.24546 
767 1 45.161 23.8727 2.58442 
768 1 47.8221 26.5338 5.24546 
769 1 50.4831 23.8727 2.58442 
770 1 53.1442 26.5338 5.24546 
771 1 55.8052 23.8727 2.58442 
772 1 58.4662 26.5338 5.24546 
773 1 61.1273 23.8727 2.58442 
774 1 63.7883 26.5338 5.24546 
775 1 66.4493 23.8727 2.58442 
776 1 69.1104 26.5338 5.24546 
777 1 71.7714 23.8727 2.58442 
778 1 74.4325 26.5338 5.24546 
779 1 77.0935 23.8727 2.58442 
780 1 79.7545 26.5338 5.24546 
781 1 82.4156 23.8727 2.58442 
782 1 85.0766 26.5338 5.24546 
783 1 -2.73765 29.1948 2.58442 
784 1 -0.0766162 31.8558 5.24546 
785 1 2.58442 29.1948 2.58442 
786 1 5.24546 31.8558 5.24546 
787 1 7.9065 29.1948 2.58442 
788 1 10.5675 31.8558 5.24546 
789 1 13.2286 29.1948 2.58442 
790 1 15.8896 31.8558 5.24546 
791 1 18.5507 29.1948 2.58442 
792 1 21.2117 31.8558 5.24546 
793 1 23.8727 29.1948 2.58442 
794 1 26.5338 31.8558 5.24546 
795 1 29.1948 29.1948 2.58442 
796 1 31.8558 31.8558 5.24546 
797 1 34.5169 29.1948 2.58442 
798 1 37.1779 31.8558 5.24546 
799 1 39.839 29.1948 2.58442 
800 1 42.5 31.8558 5.24546 
801 1 45.161 29.1948 2.58442 
802 1 47.8221 31.8558 5.24546 
803 1 50.4831 29.1948 2.58442 
804 1 53.1442 31.8558 5.24546 
805 1 55.8052 29.1948 2.58442 
806 1 58.4662 31.8558 5.24546 
807 1 61.1273 29.1948 2.58442 
808 1 63.7883 31.8558 5.24546 
809 1 66.4493 29.1948 2.58442 
810 1 69.1104 31.8558 5.24546 
811 1 71.7714 29.1948 2.58442 
812 1 74.4325 31.8558 5.24546 
813 1 77.0935 29.1948 2.58442 
814 1 79.7545 31.8558 5.24546 
815 1 82.4156 29.1948 2.58442 
816 1 85.0766 31.8558 5.24546 
817 1 -2.73765 34.5169 2.58442 
818 1 -0.0766162 37.1779 5.24546 
819 1 2.58442 34.5169 2.58442 
820 1 5.24546 37.1779 5.24546 
821 1 7.9065 34.5169 2.58442 
822 1 10.5675 37.1779 5.24546 
823 1 13.2286 34.5169 2.58442 
824 1 15.8896 37.1779 5.24546 
825 1 18.5507 34.5169 2.58442 
826 1 21.2117 37.1779 5.24546 
827 1 23.8727 34.5169 2.58442 
828 1 26.5338 37.1779 5.24546 
829 1 29.1948 34.5169 2.58442 
830 1 31.8558 37.1779 5.24546 
831 1 34.5169 34.5169 2.58442 
832 1 37.1779 37.1779 5.24546 
833 1 39.839 34.5169 2.58442 
834 1 42.5 37.1779 5.24546 
835 1 45.161 34.5169 2.58442 
836 1 47.8221 37.1779 5.24546 
837 1 50.4831 34.5169 2.58442 
838 1 53.1442 37.1779 5.24546 
839 1 55.8052 34.5169 2.58442 
840 1 58.4662 37.1779 5.24546 
841 1 61.1273 34.5169 2.58442 
842 1 63.7883 37.1779 5.24546 
843 1 66.4493 34.5169 2.58442 
844 1 69.1104 37.1779 5.24546 
845 1 71.7714 34.5169 2.58442 
846 1 74.4325 37.1779 5.24546 
847 1 77.0935 34.5169 2.58442 
848 1 79.7545 37.1779 5.24546 
849 1 82.4156 34.5169 2.58442 
850 1 85.0766 37.1779 5.24546 
851 1 -2.73765 39.839 2.58442 
852 1 -0.0766162 42.5 5.24546 
853 1 2.58442 39.839 2.58442 
854 1 5.24546 42.5 5.24546 
855 1 7.9065 39.839 2.58442 
856 1 10.5675 42.5 5.24546 
857 1 13.2286 39.839 2.58442 
858 1 15.8896 42.5 5.24546 
859 1 18.5507 39.839 2.58442 
860 1 21.2117 42.5 5.24546 
861 1 23.8727 39.839 2.58442 
862 1 26.5338 42.5 5.24546 
863 1 29.1948 39.839 2.58442 
864 1 31.8558 42.5 5.24546 
865 1 34.5169 39.839 2.58442 
866 1 37.1779 42.5 5.24546 
867 1 39.839 39.839 2.58442 
868 1 42.5 42.5 5.24546 
869 1 45.161 39.839 2.58442 
870 1 47.8221 42.5 5.24546 
871 1 50.4831 39.839 2.58442 
872 1 53.1442 42.5 5.24546 
873 1 55.8052 39.839 2.58442 
874 1 58.4662 42.5 5.24546 
875 1 61.1273 39.839 2.58442 
876 1 63.7883 42.5 5.24546 
877 1 66.4493 39.839 2.58442 
878 1 69.1104 42.5 5.24546 
879 1 71.7714 39.839 2.58442 
880 1 74.4325 42.5 5.24546 
881 1 77.0935 39.839 2.58442 
882 1 79.7545 42.5 5.24546 
883 1 82.4156 39.839 2.58442 
884 1 85.0766 42.5 5.24546 
885 1 -2.73765 45.161 2.58442 
886 1 -0.0766162 47.8221 5.24546 
887 1 2.58442 45.161 2.58442 
888 1 5.24546 47.8221 5.24546 
889 1 7.9065 45.161 2.58442 
890 1 10.5675 47.8221 5.24546 
891 1 13.2286 45.161 2.58442 
892 1 15.8896 47.8221 5.24546 
893 1 18.5507 45.161 2.58442 
894 1 21.2117 47.8221 5.24546 
895 1 23.8727 45.161 2.58442 
896 1 26.5338 47.8221 5.24546 
897 1 29.1948 45.161 2.58442 
898 1 31.8558 47.8221 5.24546 
899 1 34.5169 45.161 2.58442 
900 1 37.1779 47.8221 5.24546 
901 1 39.839 45.161 2.58442 
902 1 42.5 47.8221 5.24546 
903 1 45.161 45.161 2.58442 
904 1 47.8221 47.8221 5.24546 
905 1 50.4831 45.161 2.58442 
906 1 53.1442 47.8221 5.24546 
907 1 55.8052 45.161 2.58442 
908 1 58.4662 47.8221 5.24546 
909 1 61.1273 45.161 2.58442 
910 1 63.7883 47.8221 5.24546 
911 1 66.4493 45.161 2.58442 
912 1 69.1104 47.8221 5.24546 
913 1 71.7714 45.161 2.58442 
914 1 74.4325 47.8221 5.24546 
915 1 77.0935 45.161 2.58442 
916 1 79.7545 47.8221 5.24546 
917 1 82.4156 45.161 2.58442 
918 1 85.0766 47.8221 5.24546 
919 1 -2.73765 50.4831 2.58442 
920 1 -0.0766162 53.1442 5.24546 
921 1 2.58442 50.4831 2.58442 
922 1 5.24546 53.1442 5.24546 
923 1 7.9065 50.4831 2.58442 
924 1 10.5675 53.1442 5.24546 
925 1 13.2286 50.4831 2.58442 
926 1 15.8896 53.1442 5.24546 
927 1 18.5507 50.4831 2.58442 
928 1 21.2117 53.1442 5.24546 
929 1 23.8727 50.4831 2.58442 