ITEM: TIMESTEP
7
ITEM: NUMBER OF ATOMS
19652
ITEM: BOX BOUNDS pp pp pp
-9.8084285859155185e-01 8.5980842858591572e+01
-9.8084285859155185e-01 8.5980842858591572e+01
-9.8084285859155185e-01 8.5980842858591572e+01
ITEM: ATOMS id type xu yu zu 
1 2 -0.980843 -0.980843 -0.980843 
2 2 1.57685 1.57685 -0.980843 
3 2 1.57685 -0.980843 1.57685 
4 2 -0.980843 1.57685 1.57685 
5 2 4.13455 -0.980843 -0.980843 
6 2 6.69225 1.57685 -0.980843 
7 2 6.69225 -0.980843 1.57685 
8 2 4.13455 1.57685 1.57685 
9 2 9.24994 -0.980843 -0.980843 
10 2 11.8076 1.57685 -0.980843 
11 2 11.8076 -0.980843 1.57685 
12 2 9.24994 1.57685 1.57685 
13 2 14.3653 -0.980843 -0.980843 
14 2 16.923 1.57685 -0.980843 
15 2 16.923 -0.980843 1.57685 
16 2 14.3653 1.57685 1.57685 
17 2 19.4807 -0.980843 -0.980843 
18 2 22.0384 1.57685 -0.980843 
19 2 22.0384 -0.980843 1.57685 
20 2 19.4807 1.57685 1.57685 
21 2 24.5961 -0.980843 -0.980843 
22 2 27.1538 1.57685 -0.980843 
23 2 27.1538 -0.980843 1.57685 
24 2 24.5961 1.57685 1.57685 
25 2 29.7115 -0.980843 -0.980843 
26 2 32.2692 1.57685 -0.980843 
27 2 32.2692 -0.980843 1.57685 
28 2 29.7115 1.57685 1.57685 
29 2 34.8269 -0.980843 -0.980843 
30 2 37.3846 1.57685 -0.980843 
31 2 37.3846 -0.980843 1.57685 
32 2 34.8269 1.57685 1.57685 
33 2 39.9423 -0.980843 -0.980843 
34 2 42.5 1.57685 -0.980843 
35 2 42.5 -0.980843 1.57685 
36 2 39.9423 1.57685 1.57685 
37 2 45.0577 -0.980843 -0.980843 
38 2 47.6154 1.57685 -0.980843 
39 2 47.6154 -0.980843 1.57685 
40 2 45.0577 1.57685 1.57685 
41 2 50.1731 -0.980843 -0.980843 
42 2 52.7308 1.57685 -0.980843 
43 2 52.7308 -0.980843 1.57685 
44 2 50.1731 1.57685 1.57685 
45 2 55.2885 -0.980843 -0.980843 
46 2 57.8462 1.57685 -0.980843 
47 2 57.8462 -0.980843 1.57685 
48 2 55.2885 1.57685 1.57685 
49 2 60.4039 -0.980843 -0.980843 
50 2 62.9616 1.57685 -0.980843 
51 2 62.9616 -0.980843 1.57685 
52 2 60.4039 1.57685 1.57685 
53 2 65.5193 -0.980843 -0.980843 
54 2 68.077 1.57685 -0.980843 
55 2 68.077 -0.980843 1.57685 
56 2 65.5193 1.57685 1.57685 
57 2 70.6347 -0.980843 -0.980843 
58 2 73.1924 1.57685 -0.980843 
59 2 73.1924 -0.980843 1.57685 
60 2 70.6347 1.57685 1.57685 
61 2 75.7501 -0.980843 -0.980843 
62 2 78.3078 1.57685 -0.980843 
63 2 78.3078 -0.980843 1.57685 
64 2 75.7501 1.57685 1.57685 
65 2 80.8654 -0.980843 -0.980843 
66 2 83.4231 1.57685 -0.980843 
67 2 83.4231 -0.980843 1.57685 
68 2 80.8654 1.57685 1.57685 
69 2 -0.980843 4.13455 -0.980843 
70 2 1.57685 6.69225 -0.980843 
71 2 1.57685 4.13455 1.57685 
72 2 -0.980843 6.69225 1.57685 
73 2 4.13455 4.13455 -0.980843 
74 2 6.69225 6.69225 -0.980843 
75 2 6.69225 4.13455 1.57685 
76 2 4.13455 6.69225 1.57685 
77 2 9.24994 4.13455 -0.980843 
78 2 11.8076 6.69225 -0.980843 
79 2 11.8076 4.13455 1.57685 
80 2 9.24994 6.69225 1.57685 
81 2 14.3653 4.13455 -0.980843 
82 2 16.923 6.69225 -0.980843 
83 2 16.923 4.13455 1.57685 
84 2 14.3653 6.69225 1.57685 
85 2 19.4807 4.13455 -0.980843 
86 2 22.0384 6.69225 -0.980843 
87 2 22.0384 4.13455 1.57685 
88 2 19.4807 6.69225 1.57685 
89 2 24.5961 4.13455 -0.980843 
90 2 27.1538 6.69225 -0.980843 
91 2 27.1538 4.13455 1.57685 
92 2 24.5961 6.69225 1.57685 
93 2 29.7115 4.13455 -0.980843 
94 2 32.2692 6.69225 -0.980843 
95 2 32.2692 4.13455 1.57685 
96 2 29.7115 6.69225 1.57685 
97 2 34.8269 4.13455 -0.980843 
98 2 37.3846 6.69225 -0.980843 
99 2 37.3846 4.13455 1.57685 
100 2 34.8269 6.69225 1.57685 
101 2 39.9423 4.13455 -0.980843 
102 2 42.5 6.69225 -0.980843 
103 2 42.5 4.13455 1.57685 
104 2 39.9423 6.69225 1.57685 
105 2 45.0577 4.13455 -0.980843 
106 2 47.6154 6.69225 -0.980843 
107 2 47.6154 4.13455 1.57685 
108 2 45.0577 6.69225 1.57685 
109 2 50.1731 4.13455 -0.980843 
110 2 52.7308 6.69225 -0.980843 
111 2 52.7308 4.13455 1.57685 
112 2 50.1731 6.69225 1.57685 
113 2 55.2885 4.13455 -0.980843 
114 2 57.8462 6.69225 -0.980843 
115 2 57.8462 4.13455 1.57685 
116 2 55.2885 6.69225 1.57685 
117 2 60.4039 4.13455 -0.980843 
118 2 62.9616 6.69225 -0.980843 
119 2 62.9616 4.13455 1.57685 
120 2 60.4039 6.69225 1.57685 
121 2 65.5193 4.13455 -0.980843 
122 2 68.077 6.69225 -0.980843 
123 2 68.077 4.13455 1.57685 
124 2 65.5193 6.69225 1.57685 
125 2 70.6347 4.13455 -0.980843 
126 2 73.1924 6.69225 -0.980843 
127 2 73.1924 4.13455 1.57685 
128 2 70.6347 6.69225 1.57685 
129 2 75.7501 4.13455 -0.980843 
130 2 78.3078 6.69225 -0.980843 
131 2 78.3078 4.13455 1.57685 
132 2 75.7501 6.69225 1.57685 
133 2 80.8654 4.13455 -0.980843 
134 2 83.4231 6.69225 -0.980843 
135 2 83.4231 4.13455 1.57685 
136 2 80.8654 6.69225 1.57685 
137 2 -0.980843 9.24994 -0.980843 
138 2 1.57685 11.8076 -0.980843 
139 2 1.57685 9.24994 1.57685 
140 2 -0.980843 11.8076 1.57685 
141 2 4.13455 9.24994 -0.980843 
142 2 6.69225 11.8076 -0.980843 
143 2 6.69225 9.24994 1.57685 
144 2 4.13455 11.8076 1.57685 
145 2 9.24994 9.24994 -0.980843 
146 2 11.8076 11.8076 -0.980843 
147 2 11.8076 9.24994 1.57685 
148 2 9.24994 11.8076 1.57685 
149 2 14.3653 9.24994 -0.980843 
150 2 16.923 11.8076 -0.980843 
151 2 16.923 9.24994 1.57685 
152 2 14.3653 11.8076 1.57685 
153 2 19.4807 9.24994 -0.980843 
154 2 22.0384 11.8076 -0.980843 
155 2 22.0384 9.24994 1.57685 
156 2 19.4807 11.8076 1.57685 
157 2 24.5961 9.24994 -0.980843 
158 2 27.1538 11.8076 -0.980843 
159 2 27.1538 9.24994 1.57685 
160 2 24.5961 11.8076 1.57685 
161 2 29.7115 9.24994 -0.980843 
162 2 32.2692 11.8076 -0.980843 
163 2 32.2692 9.24994 1.57685 
164 2 29.7115 11.8076 1.57685 
165 2 34.8269 9.24994 -0.980843 
166 2 37.3846 11.8076 -0.980843 
167 2 37.3846 9.24994 1.57685 
168 2 34.8269 11.8076 1.57685 
169 2 39.9423 9.24994 -0.980843 
170 2 42.5 11.8076 -0.980843 
171 2 42.5 9.24994 1.57685 
172 2 39.9423 11.8076 1.57685 
173 2 45.0577 9.24994 -0.980843 
174 2 47.6154 11.8076 -0.980843 
175 2 47.6154 9.24994 1.57685 
176 2 45.0577 11.8076 1.57685 
177 2 50.1731 9.24994 -0.980843 
178 2 52.7308 11.8076 -0.980843 
179 2 52.7308 9.24994 1.57685 
180 2 50.1731 11.8076 1.57685 
181 2 55.2885 9.24994 -0.980843 
182 2 57.8462 11.8076 -0.980843 
183 2 57.8462 9.24994 1.57685 
184 2 55.2885 11.8076 1.57685 
185 2 60.4039 9.24994 -0.980843 
186 2 62.9616 11.8076 -0.980843 
187 2 62.9616 9.24994 1.57685 
188 2 60.4039 11.8076 1.57685 
189 2 65.5193 9.24994 -0.980843 
190 2 68.077 11.8076 -0.980843 
191 2 68.077 9.24994 1.57685 
192 2 65.5193 11.8076 1.57685 
193 2 70.6347 9.24994 -0.980843 
194 2 73.1924 11.8076 -0.980843 
195 2 73.1924 9.24994 1.57685 
196 2 70.6347 11.8076 1.57685 
197 2 75.7501 9.24994 -0.980843 
198 2 78.3078 11.8076 -0.980843 
199 2 78.3078 9.24994 1.57685 
200 2 75.7501 11.8076 1.57685 
201 2 80.8654 9.24994 -0.980843 
202 2 83.4231 11.8076 -0.980843 
203 2 83.4231 9.24994 1.57685 
204 2 80.8654 11.8076 1.57685 
205 2 -0.980843 14.3653 -0.980843 
206 2 1.57685 16.923 -0.980843 
207 2 1.57685 14.3653 1.57685 
208 2 -0.980843 16.923 1.57685 
209 2 4.13455 14.3653 -0.980843 
210 2 6.69225 16.923 -0.980843 
211 2 6.69225 14.3653 1.57685 
212 2 4.13455 16.923 1.57685 
213 2 9.24994 14.3653 -0.980843 
214 2 11.8076 16.923 -0.980843 
215 2 11.8076 14.3653 1.57685 
216 2 9.24994 16.923 1.57685 
217 2 14.3653 14.3653 -0.980843 
218 2 16.923 16.923 -0.980843 
219 2 16.923 14.3653 1.57685 
220 2 14.3653 16.923 1.57685 
221 2 19.4807 14.3653 -0.980843 
222 2 22.0384 16.923 -0.980843 
223 2 22.0384 14.3653 1.57685 
224 2 19.4807 16.923 1.57685 
225 2 24.5961 14.3653 -0.980843 
226 2 27.1538 16.923 -0.980843 
227 2 27.1538 14.3653 1.57685 
228 2 24.5961 16.923 1.57685 
229 2 29.7115 14.3653 -0.980843 
230 2 32.2692 16.923 -0.980843 
231 2 32.2692 14.3653 1.57685 
232 2 29.7115 16.923 1.57685 
233 2 34.8269 14.3653 -0.980843 
234 2 37.3846 16.923 -0.980843 
235 2 37.3846 14.3653 1.57685 
236 2 34.8269 16.923 1.57685 
237 2 39.9423 14.3653 -0.980843 
238 2 42.5 16.923 -0.980843 
239 2 42.5 14.3653 1.57685 
240 2 39.9423 16.923 1.57685 
241 2 45.0577 14.3653 -0.980843 
242 2 47.6154 16.923 -0.980843 
243 2 47.6154 14.3653 1.57685 
244 2 45.0577 16.923 1.57685 
245 2 50.1731 14.3653 -0.980843 
246 2 52.7308 16.923 -0.980843 
247 2 52.7308 14.3653 1.57685 
248 2 50.1731 16.923 1.57685 
249 2 55.2885 14.3653 -0.980843 
250 2 57.8462 16.923 -0.980843 
251 2 57.8462 14.3653 1.57685 
252 2 55.2885 16.923 1.57685 
253 2 60.4039 14.3653 -0.980843 
254 2 62.9616 16.923 -0.980843 
255 2 62.9616 14.3653 1.57685 
256 2 60.4039 16.923 1.57685 
257 2 65.5193 14.3653 -0.980843 
258 2 68.077 16.923 -0.980843 
259 2 68.077 14.3653 1.57685 
260 2 65.5193 16.923 1.57685 
261 2 70.6347 14.3653 -0.980843 
262 2 73.1924 16.923 -0.980843 
263 2 73.1924 14.3653 1.57685 
264 2 70.6347 16.923 1.57685 
265 2 75.7501 14.3653 -0.980843 
266 2 78.3078 16.923 -0.980843 
267 2 78.3078 14.3653 1.57685 
268 2 75.7501 16.923 1.57685 
269 2 80.8654 14.3653 -0.980843 
270 2 83.4231 16.923 -0.980843 
271 2 83.4231 14.3653 1.57685 
272 2 80.8654 16.923 1.57685 
273 2 -0.980843 19.4807 -0.980843 
274 2 1.57685 22.0384 -0.980843 
275 2 1.57685 19.4807 1.57685 
276 2 -0.980843 22.0384 1.57685 
277 2 4.13455 19.4807 -0.980843 
278 2 6.69225 22.0384 -0.980843 
279 2 6.69225 19.4807 1.57685 
280 2 4.13455 22.0384 1.57685 
281 2 9.24994 19.4807 -0.980843 
282 2 11.8076 22.0384 -0.980843 
283 2 11.8076 19.4807 1.57685 
284 2 9.24994 22.0384 1.57685 
285 2 14.3653 19.4807 -0.980843 
286 2 16.923 22.0384 -0.980843 
287 2 16.923 19.4807 1.57685 
288 2 14.3653 22.0384 1.57685 
289 2 19.4807 19.4807 -0.980843 
290 2 22.0384 22.0384 -0.980843 
291 2 22.0384 19.4807 1.57685 
292 2 19.4807 22.0384 1.57685 
293 2 24.5961 19.4807 -0.980843 
294 2 27.1538 22.0384 -0.980843 
295 2 27.1538 19.4807 1.57685 
296 2 24.5961 22.0384 1.57685 
297 2 29.7115 19.4807 -0.980843 
298 2 32.2692 22.0384 -0.980843 
299 2 32.2692 19.4807 1.57685 
300 2 29.7115 22.0384 1.57685 
301 2 34.8269 19.4807 -0.980843 
302 2 37.3846 22.0384 -0.980843 
303 2 37.3846 19.4807 1.57685 
304 2 34.8269 22.0384 1.57685 
305 2 39.9423 19.4807 -0.980843 
306 2 42.5 22.0384 -0.980843 
307 2 42.5 19.4807 1.57685 
308 2 39.9423 22.0384 1.57685 
309 2 45.0577 19.4807 -0.980843 
310 2 47.6154 22.0384 -0.980843 
311 2 47.6154 19.4807 1.57685 
312 2 45.0577 22.0384 1.57685 
313 2 50.1731 19.4807 -0.980843 
314 2 52.7308 22.0384 -0.980843 
315 2 52.7308 19.4807 1.57685 
316 2 50.1731 22.0384 1.57685 
317 2 55.2885 19.4807 -0.980843 
318 2 57.8462 22.0384 -0.980843 
319 2 57.8462 19.4807 1.57685 
320 2 55.2885 22.0384 1.57685 
321 2 60.4039 19.4807 -0.980843 
322 2 62.9616 22.0384 -0.980843 
323 2 62.9616 19.4807 1.57685 
324 2 60.4039 22.0384 1.57685 
325 2 65.5193 19.4807 -0.980843 
326 2 68.077 22.0384 -0.980843 
327 2 68.077 19.4807 1.57685 
328 2 65.5193 22.0384 1.57685 
329 2 70.6347 19.4807 -0.980843 
330 2 73.1924 22.0384 -0.980843 
331 2 73.1924 19.4807 1.57685 
332 2 70.6347 22.0384 1.57685 
333 2 75.7501 19.4807 -0.980843 
334 2 78.3078 22.0384 -0.980843 
335 2 78.3078 19.4807 1.57685 
336 2 75.7501 22.0384 1.57685 
337 2 80.8654 19.4807 -0.980843 
338 2 83.4231 22.0384 -0.980843 
339 2 83.4231 19.4807 1.57685 
340 2 80.8654 22.0384 1.57685 
341 2 -0.980843 24.5961 -0.980843 
342 2 1.57685 27.1538 -0.980843 
343 2 1.57685 24.5961 1.57685 
344 2 -0.980843 27.1538 1.57685 
345 2 4.13455 24.5961 -0.980843 
346 2 6.69225 27.1538 -0.980843 
347 2 6.69225 24.5961 1.57685 
348 2 4.13455 27.1538 1.57685 
349 2 9.24994 24.5961 -0.980843 
350 2 11.8076 27.1538 -0.980843 
351 2 11.8076 24.5961 1.57685 
352 2 9.24994 27.1538 1.57685 
353 2 14.3653 24.5961 -0.980843 
354 2 16.923 27.1538 -0.980843 
355 2 16.923 24.5961 1.57685 
356 2 14.3653 27.1538 1.57685 
357 2 19.4807 24.5961 -0.980843 
358 2 22.0384 27.1538 -0.980843 
359 2 22.0384 24.5961 1.57685 
360 2 19.4807 27.1538 1.57685 
361 2 24.5961 24.5961 -0.980843 
362 2 27.1538 27.1538 -0.980843 
363 2 27.1538 24.5961 1.57685 
364 2 24.5961 27.1538 1.57685 
365 2 29.7115 24.5961 -0.980843 
366 2 32.2692 27.1538 -0.980843 
367 2 32.2692 24.5961 1.57685 
368 2 29.7115 27.1538 1.57685 
369 2 34.8269 24.5961 -0.980843 
370 2 37.3846 27.1538 -0.980843 
371 2 37.3846 24.5961 1.57685 
372 2 34.8269 27.1538 1.57685 
373 2 39.9423 24.5961 -0.980843 
374 2 42.5 27.1538 -0.980843 
375 2 42.5 24.5961 1.57685 
376 2 39.9423 27.1538 1.57685 
377 2 45.0577 24.5961 -0.980843 
378 2 47.6154 27.1538 -0.980843 
379 2 47.6154 24.5961 1.57685 
380 2 45.0577 27.1538 1.57685 
381 2 50.1731 24.5961 -0.980843 
382 2 52.7308 27.1538 -0.980843 
383 2 52.7308 24.5961 1.57685 
384 2 50.1731 27.1538 1.57685 
385 2 55.2885 24.5961 -0.980843 
386 2 57.8462 27.1538 -0.980843 
387 2 57.8462 24.5961 1.57685 
388 2 55.2885 27.1538 1.57685 
389 2 60.4039 24.5961 -0.980843 
390 2 62.9616 27.1538 -0.980843 
391 2 62.9616 24.5961 1.57685 
392 2 60.4039 27.1538 1.57685 
393 2 65.5193 24.5961 -0.980843 
394 2 68.077 27.1538 -0.980843 
395 2 68.077 24.5961 1.57685 
396 2 65.5193 27.1538 1.57685 
397 2 70.6347 24.5961 -0.980843 
398 2 73.1924 27.1538 -0.980843 
399 2 73.1924 24.5961 1.57685 
400 2 70.6347 27.1538 1.57685 
401 2 75.7501 24.5961 -0.980843 
402 2 78.3078 27.1538 -0.980843 
403 2 78.3078 24.5961 1.57685 
404 2 75.7501 27.1538 1.57685 
405 2 80.8654 24.5961 -0.980843 
406 2 83.4231 27.1538 -0.980843 
407 2 83.4231 24.5961 1.57685 
408 2 80.8654 27.1538 1.57685 
409 2 -0.980843 29.7115 -0.980843 
410 2 1.57685 32.2692 -0.980843 
411 2 1.57685 29.7115 1.57685 
412 2 -0.980843 32.2692 1.57685 
413 2 4.13455 29.7115 -0.980843 
414 2 6.69225 32.2692 -0.980843 
415 2 6.69225 29.7115 1.57685 
416 2 4.13455 32.2692 1.57685 
417 2 9.24994 29.7115 -0.980843 
418 2 11.8076 32.2692 -0.980843 
419 2 11.8076 29.7115 1.57685 
420 2 9.24994 32.2692 1.57685 
421 2 14.3653 29.7115 -0.980843 
422 2 16.923 32.2692 -0.980843 
423 2 16.923 29.7115 1.57685 
424 2 14.3653 32.2692 1.57685 
425 2 19.4807 29.7115 -0.980843 
426 2 22.0384 32.2692 -0.980843 
427 2 22.0384 29.7115 1.57685 
428 2 19.4807 32.2692 1.57685 
429 2 24.5961 29.7115 -0.980843 
430 2 27.1538 32.2692 -0.980843 
431 2 27.1538 29.7115 1.57685 
432 2 24.5961 32.2692 1.57685 
433 2 29.7115 29.7115 -0.980843 
434 2 32.2692 32.2692 -0.980843 
435 2 32.2692 29.7115 1.57685 
436 2 29.7115 32.2692 1.57685 
437 2 34.8269 29.7115 -0.980843 
438 2 37.3846 32.2692 -0.980843 
439 2 37.3846 29.7115 1.57685 
440 2 34.8269 32.2692 1.57685 
441 2 39.9423 29.7115 -0.980843 
442 2 42.5 32.2692 -0.980843 
443 2 42.5 29.7115 1.57685 
444 2 39.9423 32.2692 1.57685 
445 2 45.0577 29.7115 -0.980843 
446 2 47.6154 32.2692 -0.980843 
447 2 47.6154 29.7115 1.57685 
448 2 45.0577 32.2692 1.57685 
449 2 50.1731 29.7115 -0.980843 
450 2 52.7308 32.2692 -0.980843 
451 2 52.7308 29.7115 1.57685 
452 2 50.1731 32.2692 1.57685 
453 2 55.2885 29.7115 -0.980843 
454 2 57.8462 32.2692 -0.980843 
455 2 57.8462 29.7115 1.57685 
456 2 55.2885 32.2692 1.57685 
457 2 60.4039 29.7115 -0.980843 
458 2 62.9616 32.2692 -0.980843 
459 2 62.9616 29.7115 1.57685 
460 2 60.4039 32.2692 1.57685 
461 2 65.5193 29.7115 -0.980843 
462 2 68.077 32.2692 -0.980843 
463 2 68.077 29.7115 1.57685 
464 2 65.5193 32.2692 1.57685 
465 2 70.6347 29.7115 -0.980843 
466 2 73.1924 32.2692 -0.980843 
467 2 73.1924 29.7115 1.57685 
468 2 70.6347 32.2692 1.57685 
469 2 75.7501 29.7115 -0.980843 
470 2 78.3078 32.2692 -0.980843 
471 2 78.3078 29.7115 1.57685 
472 2 75.7501 32.2692 1.57685 
473 2 80.8654 29.7115 -0.980843 
474 2 83.4231 32.2692 -0.980843 
475 2 83.4231 29.7115 1.57685 
476 2 80.8654 32.2692 1.57685 
477 2 -0.980843 34.8269 -0.980843 
478 2 1.57685 37.3846 -0.980843 
479 2 1.57685 34.8269 1.57685 
480 2 -0.980843 37.3846 1.57685 
481 2 4.13455 34.8269 -0.980843 
482 2 6.69225 37.3846 -0.980843 
483 2 6.69225 34.8269 1.57685 
484 2 4.13455 37.3846 1.57685 
485 2 9.24994 34.8269 -0.980843 
486 2 11.8076 37.3846 -0.980843 
487 2 11.8076 34.8269 1.57685 
488 2 9.24994 37.3846 1.57685 
489 2 14.3653 34.8269 -0.980843 
490 2 16.923 37.3846 -0.980843 
491 2 16.923 34.8269 1.57685 
492 2 14.3653 37.3846 1.57685 
493 2 19.4807 34.8269 -0.980843 
494 2 22.0384 37.3846 -0.980843 
495 2 22.0384 34.8269 1.57685 
496 2 19.4807 37.3846 1.57685 
497 2 24.5961 34.8269 -0.980843 
498 2 27.1538 37.3846 -0.980843 
499 2 27.1538 34.8269 1.57685 
500 2 24.5961 37.3846 1.57685 
501 2 29.7115 34.8269 -0.980843 
502 2 32.2692 37.3846 -0.980843 
503 2 32.2692 34.8269 1.57685 
504 2 29.7115 37.3846 1.57685 
505 2 34.8269 34.8269 -0.980843 
506 2 37.3846 37.3846 -0.980843 
507 2 37.3846 34.8269 1.57685 
508 2 34.8269 37.3846 1.57685 
509 2 39.9423 34.8269 -0.980843 
510 2 42.5 37.3846 -0.980843 
511 2 42.5 34.8269 1.57685 
512 2 39.9423 37.3846 1.57685 
513 2 45.0577 34.8269 -0.980843 
514 2 47.6154 37.3846 -0.980843 
515 2 47.6154 34.8269 1.57685 
516 2 45.0577 37.3846 1.57685 
517 2 50.1731 34.8269 -0.980843 
518 2 52.7308 37.3846 -0.980843 
519 2 52.7308 34.8269 1.57685 
520 2 50.1731 37.3846 1.57685 
521 2 55.2885 34.8269 -0.980843 
522 2 57.8462 37.3846 -0.980843 
523 2 57.8462 34.8269 1.57685 
524 2 55.2885 37.3846 1.57685 
525 2 60.4039 34.8269 -0.980843 
526 2 62.9616 37.3846 -0.980843 
527 2 62.9616 34.8269 1.57685 
528 2 60.4039 37.3846 1.57685 
529 2 65.5193 34.8269 -0.980843 
530 2 68.077 37.3846 -0.980843 
531 2 68.077 34.8269 1.57685 
532 2 65.5193 37.3846 1.57685 
533 2 70.6347 34.8269 -0.980843 
534 2 73.1924 37.3846 -0.980843 
535 2 73.1924 34.8269 1.57685 
536 2 70.6347 37.3846 1.57685 
537 2 75.7501 34.8269 -0.980843 
538 2 78.3078 37.3846 -0.980843 
539 2 78.3078 34.8269 1.57685 
540 2 75.7501 37.3846 1.57685 
541 2 80.8654 34.8269 -0.980843 
542 2 83.4231 37.3846 -0.980843 
543 2 83.4231 34.8269 1.57685 
544 2 80.8654 37.3846 1.57685 
545 2 -0.980843 39.9423 -0.980843 
546 2 1.57685 42.5 -0.980843 
547 2 1.57685 39.9423 1.57685 
548 2 -0.980843 42.5 1.57685 
549 2 4.13455 39.9423 -0.980843 
550 2 6.69225 42.5 -0.980843 
551 2 6.69225 39.9423 1.57685 
552 2 4.13455 42.5 1.57685 
553 2 9.24994 39.9423 -0.980843 
554 2 11.8076 42.5 -0.980843 
555 2 11.8076 39.9423 1.57685 
556 2 9.24994 42.5 1.57685 
557 2 14.3653 39.9423 -0.980843 
558 2 16.923 42.5 -0.980843 
559 2 16.923 39.9423 1.57685 
560 2 14.3653 42.5 1.57685 
561 2 19.4807 39.9423 -0.980843 
562 2 22.0384 42.5 -0.980843 
563 2 22.0384 39.9423 1.57685 
564 2 19.4807 42.5 1.57685 
565 2 24.5961 39.9423 -0.980843 
566 2 27.1538 42.5 -0.980843 
567 2 27.1538 39.9423 1.57685 
568 2 24.5961 42.5 1.57685 
569 2 29.7115 39.9423 -0.980843 
570 2 32.2692 42.5 -0.980843 
571 2 32.2692 39.9423 1.57685 
572 2 29.7115 42.5 1.57685 
573 2 34.8269 39.9423 -0.980843 
574 2 37.3846 42.5 -0.980843 
575 2 37.3846 39.9423 1.57685 
576 2 34.8269 42.5 1.57685 
577 2 39.9423 39.9423 -0.980843 
578 2 42.5 42.5 -0.980843 
579 2 42.5 39.9423 1.57685 
580 2 39.9423 42.5 1.57685 
581 2 45.0577 39.9423 -0.980843 
582 2 47.6154 42.5 -0.980843 
583 2 47.6154 39.9423 1.57685 
584 2 45.0577 42.5 1.57685 
585 2 50.1731 39.9423 -0.980843 
586 2 52.7308 42.5 -0.980843 
587 2 52.7308 39.9423 1.57685 
588 2 50.1731 42.5 1.57685 
589 2 55.2885 39.9423 -0.980843 
590 2 57.8462 42.5 -0.980843 
591 2 57.8462 39.9423 1.57685 
592 2 55.2885 42.5 1.57685 
593 2 60.4039 39.9423 -0.980843 
594 2 62.9616 42.5 -0.980843 
595 2 62.9616 39.9423 1.57685 
596 2 60.4039 42.5 1.57685 
597 2 65.5193 39.9423 -0.980843 
598 2 68.077 42.5 -0.980843 
599 2 68.077 39.9423 1.57685 
600 2 65.5193 42.5 1.57685 
601 2 70.6347 39.9423 -0.980843 
602 2 73.1924 42.5 -0.980843 
603 2 73.1924 39.9423 1.57685 
604 2 70.6347 42.5 1.57685 
605 2 75.7501 39.9423 -0.980843 
606 2 78.3078 42.5 -0.980843 
607 2 78.3078 39.9423 1.57685 
608 2 75.7501 42.5 1.57685 
609 2 80.8654 39.9423 -0.980843 
610 2 83.4231 42.5 -0.980843 
611 2 83.4231 39.9423 1.57685 
612 2 80.8654 42.5 1.57685 
613 2 -0.980843 45.0577 -0.980843 
614 2 1.57685 47.6154 -0.980843 
615 2 1.57685 45.0577 1.57685 
616 2 -0.980843 47.6154 1.57685 
617 2 4.13455 45.0577 -0.980843 
618 2 6.69225 47.6154 -0.980843 
619 2 6.69225 45.0577 1.57685 
620 2 4.13455 47.6154 1.57685 
621 2 9.24994 45.0577 -0.980843 
622 2 11.8076 47.6154 -0.980843 
623 2 11.8076 45.0577 1.57685 
624 2 9.24994 47.6154 1.57685 
625 2 14.3653 45.0577 -0.980843 
626 2 16.923 47.6154 -0.980843 
627 2 16.923 45.0577 1.57685 
628 2 14.3653 47.6154 1.57685 
629 2 19.4807 45.0577 -0.980843 
630 2 22.0384 47.6154 -0.980843 
631 2 22.0384 45.0577 1.57685 
632 2 19.4807 47.6154 1.57685 
633 2 24.5961 45.0577 -0.980843 
634 2 27.1538 47.6154 -0.980843 
635 2 27.1538 45.0577 1.57685 
636 2 24.5961 47.6154 1.57685 
637 2 29.7115 45.0577 -0.980843 
638 2 32.2692 47.6154 -0.980843 
639 2 32.2692 45.0577 1.57685 
640 2 29.7115 47.6154 1.57685 
641 2 34.8269 45.0577 -0.980843 
642 2 37.3846 47.6154 -0.980843 
643 2 37.3846 45.0577 1.57685 
644 2 34.8269 47.6154 1.57685 
645 2 39.9423 45.0577 -0.980843 
646 2 42.5 47.6154 -0.980843 
647 2 42.5 45.0577 1.57685 
648 2 39.9423 47.6154 1.57685 
649 2 45.0577 45.0577 -0.980843 
650 2 47.6154 47.6154 -0.980843 
651 2 47.6154 45.0577 1.57685 
652 2 45.0577 47.6154 1.57685 
653 2 50.1731 45.0577 -0.980843 
654 2 52.7308 47.6154 -0.980843 
655 2 52.7308 45.0577 1.57685 
656 2 50.1731 47.6154 1.57685 
657 2 55.2885 45.0577 -0.980843 
658 2 57.8462 47.6154 -0.980843 
659 2 57.8462 45.0577 1.57685 
660 2 55.2885 47.6154 1.57685 
661 2 60.4039 45.0577 -0.980843 
662 2 62.9616 47.6154 -0.980843 
663 2 62.9616 45.0577 1.57685 
664 2 60.4039 47.6154 1.57685 
665 2 65.5193 45.0577 -0.980843 
666 2 68.077 47.6154 -0.980843 
667 2 68.077 45.0577 1.57685 
668 2 65.5193 47.6154 1.57685 
669 2 70.6347 45.0577 -0.980843 
670 2 73.1924 47.6154 -0.980843 
671 2 73.1924 45.0577 1.57685 
672 2 70.6347 47.6154 1.57685 
673 2 75.7501 45.0577 -0.980843 
674 2 78.3078 47.6154 -0.980843 
675 2 78.3078 45.0577 1.57685 
676 2 75.7501 47.6154 1.57685 
677 2 80.8654 45.0577 -0.980843 
678 2 83.4231 47.6154 -0.980843 
679 2 83.4231 45.0577 1.57685 
680 2 80.8654 47.6154 1.57685 
681 2 -0.980843 50.1731 -0.980843 
682 2 1.57685 52.7308 -0.980843 
683 2 1.57685 50.1731 1.57685 
684 2 -0.980843 52.7308 1.57685 
685 2 4.13455 50.1731 -0.980843 
686 2 6.69225 52.7308 -0.980843 
687 2 6.69225 50.1731 1.57685 
688 2 4.13455 52.7308 1.57685 
689 2 9.24994 50.1731 -0.980843 
690 2 11.8076 52.7308 -0.980843 
691 2 11.8076 50.1731 1.57685 
692 2 9.24994 52.7308 1.57685 
693 2 14.3653 50.1731 -0.980843 
694 2 16.923 52.7308 -0.980843 
695 2 16.923 50.1731 1.57685 
696 2 14.3653 52.7308 1.57685 
697 2 19.4807 50.1731 -0.980843 
698 2 22.0384 52.7308 -0.980843 
699 2 22.0384 50.1731 1.57685 
700 2 19.4807 52.7308 1.57685 
701 2 24.5961 50.1731 -0.980843 
702 2 27.1538 52.7308 -0.980843 
703 2 27.1538 50.1731 1.57685 
704 2 24.5961 52.7308 1.57685 
705 2 29.7115 50.1731 -0.980843 
706 2 32.2692 52.7308 -0.980843 
707 2 32.2692 50.1731 1.57685 
708 2 29.7115 52.7308 1.57685 
709 2 34.8269 50.1731 -0.980843 
710 2 37.3846 52.7308 -0.980843 
711 2 37.3846 50.1731 1.57685 
712 2 34.8269 52.7308 1.57685 
713 2 39.9423 50.1731 -0.980843 
714 2 42.5 52.7308 -0.980843 
715 2 42.5 50.1731 1.57685 
716 2 39.9423 52.7308 1.57685 
717 2 45.0577 50.1731 -0.980843 
718 2 47.6154 52.7308 -0.980843 
719 2 47.6154 50.1731 1.57685 
720 2 45.0577 52.7308 1.57685 
721 2 50.1731 50.1731 -0.980843 
722 2 52.7308 52.7308 -0.980843 
723 2 52.7308 50.1731 1.57685 
724 2 50.1731 52.7308 1.57685 
725 2 55.2885 50.1731 -0.980843 
726 2 57.8462 52.7308 -0.980843 
727 2 57.8462 50.1731 1.57685 
728 2 55.2885 52.7308 1.57685 
729 2 60.4039 50.1731 -0.980843 
730 2 62.9616 52.7308 -0.980843 
731 2 62.9616 50.1731 1.57685 
732 2 60.4039 52.7308 1.57685 
733 2 65.5193 50.1731 -0.980843 
734 2 68.077 52.7308 -0.980843 
735 2 68.077 50.1731 1.57685 
736 2 65.5193 52.7308 1.57685 
737 2 70.6347 50.1731 -0.980843 
738 2 73.1924 52.7308 -0.980843 
739 2 73.1924 50.1731 1.57685 
740 2 70.6347 52.7308 1.57685 
741 2 75.7501 50.1731 -0.980843 
742 2 78.3078 52.7308 -0.980843 
743 2 78.3078 50.1731 1.57685 
744 2 75.7501 52.7308 1.57685 
745 2 80.8654 50.1731 -0.980843 
746 2 83.4231 52.7308 -0.980843 
747 2 83.4231 50.1731 1.57685 
748 2 80.8654 52.7308 1.57685 
749 2 -0.980843 55.2885 -0.980843 
750 2 1.57685 57.8462 -0.980843 
751 2 1.57685 55.2885 1.57685 
752 2 -0.980843 57.8462 1.57685 
753 2 4.13455 55.2885 -0.980843 
754 2 6.69225 57.8462 -0.980843 
755 2 6.69225 55.2885 1.57685 
756 2 4.13455 57.8462 1.57685 
757 2 9.24994 55.2885 -0.980843 
758 2 11.8076 57.8462 -0.980843 
759 2 11.8076 55.2885 1.57685 
760 2 9.24994 57.8462 1.57685 
761 2 14.3653 55.2885 -0.980843 
762 2 16.923 57.8462 -0.980843 
763 2 16.923 55.2885 1.57685 
764 2 14.3653 57.8462 1.57685 
765 2 19.4807 55.2885 -0.980843 
766 2 22.0384 57.8462 -0.980843 
767 2 22.0384 55.2885 1.57685 
768 2 19.4807 57.8462 1.57685 
769 2 24.5961 55.2885 -0.980843 
770 2 27.1538 57.8462 -0.980843 
771 2 27.1538 55.2885 1.57685 
772 2 24.5961 57.8462 1.57685 
773 2 29.7115 55.2885 -0.980843 
774 2 32.2692 57.8462 -0.980843 
775 2 32.2692 55.2885 1.57685 
776 2 29.7115 57.8462 1.57685 
777 2 34.8269 55.2885 -0.980843 
778 2 37.3846 57.8462 -0.980843 
779 2 37.3846 55.2885 1.57685 
780 2 34.8269 57.8462 1.57685 
781 2 39.9423 55.2885 -0.980843 
782 2 42.5 57.8462 -0.980843 
783 2 42.5 55.2885 1.57685 
784 2 39.9423 57.8462 1.57685 
785 2 45.0577 55.2885 -0.980843 
786 2 47.6154 57.8462 -0.980843 
787 2 47.6154 55.2885 1.57685 
788 2 45.0577 57.8462 1.57685 
789 2 50.1731 55.2885 -0.980843 
790 2 52.7308 57.8462 -0.980843 
791 2 52.7308 55.2885 1.57685 
792 2 50.1731 57.8462 1.57685 
793 2 55.2885 55.2885 -0.980843 
794 2 57.8462 57.8462 -0.980843 
795 2 57.8462 55.2885 1.57685 
796 2 55.2885 57.8462 1.57685 
797 2 60.4039 55.2885 -0.980843 
798 2 62.9616 57.8462 -0.980843 
799 2 62.9616 55.2885 1.57685 
800 2 60.4039 57.8462 1.57685 
801 2 65.5193 55.2885 -0.980843 
802 2 68.077 57.8462 -0.980843 
803 2 68.077 55.2885 1.57685 
804 2 65.5193 57.8462 1.57685 
805 2 70.6347 55.2885 -0.980843 
806 2 73.1924 57.8462 -0.980843 
807 2 73.1924 55.2885 1.57685 
808 2 70.6347 57.8462 1.57685 
809 2 75.7501 55.2885 -0.980843 
810 2 78.3078 57.8462 -0.980843 
811 2 78.3078 55.2885 1.57685 
812 2 75.7501 57.8462 1.57685 
813 2 80.8654 55.2885 -0.980843 
814 2 83.4231 57.8462 -0.980843 
815 2 83.4231 55.2885 1.57685 
816 2 80.8654 57.8462 1.57685 
817 2 -0.980843 60.4039 -0.980843 
818 2 1.57685 62.9616 -0.980843 
819 2 1.57685 60.4039 1.57685 
820 2 -0.980843 62.9616 1.57685 
821 2 4.13455 60.4039 -0.980843 
822 2 6.69225 62.9616 -0.980843 
823 2 6.69225 60.4039 1.57685 
824 2 4.13455 62.9616 1.57685 
825 2 9.24994 60.4039 -0.980843 
826 2 11.8076 62.9616 -0.980843 
827 2 11.8076 60.4039 1.57685 
828 2 9.24994 62.9616 1.57685 
829 2 14.3653 60.4039 -0.980843 
830 2 16.923 62.9616 -0.980843 
831 2 16.923 60.4039 1.57685 
832 2 14.3653 62.9616 1.57685 
833 2 19.4807 60.4039 -0.980843 
834 2 22.0384 62.9616 -0.980843 
835 2 22.0384 60.4039 1.57685 
836 2 19.4807 62.9616 1.57685 
837 2 24.5961 60.4039 -0.980843 
838 2 27.1538 62.9616 -0.980843 
839 2 27.1538 60.4039 1.57685 
840 2 24.5961 62.9616 1.57685 
841 2 29.7115 60.4039 -0.980843 
842 2 32.2692 62.9616 -0.980843 
843 2 32.2692 60.4039 1.57685 
844 2 29.7115 62.9616 1.57685 
845 2 34.8269 60.4039 -0.980843 
846 2 37.3846 62.9616 -0.980843 
847 2 37.3846 60.4039 1.57685 
848 2 34.8269 62.9616 1.57685 
849 2 39.9423 60.4039 -0.980843 
850 2 42.5 62.9616 -0.980843 
851 2 42.5 60.4039 1.57685 
852 2 39.9423 62.9616 1.57685 
853 2 45.0577 60.4039 -0.980843 
854 2 47.6154 62.9616 -0.980843 
855 2 47.6154 60.4039 1.57685 
856 2 45.0577 62.9616 1.57685 
857 2 50.1731 60.4039 -0.980843 
858 2 52.7308 62.9616 -0.980843 
859 2 52.7308 60.4039 1.57685 
860 2 50.1731 62.9616 1.57685 
861 2 55.2885 60.4039 -0.980843 
862 2 57.8462 62.9616 -0.980843 
863 2 57.8462 60.4039 1.57685 
864 2 55.2885 62.9616 1.57685 
865 2 60.4039 60.4039 -0.980843 
866 2 62.9616 62.9616 -0.980843 
867 2 62.9616 60.4039 1.57685 
868 2 60.4039 62.9616 1.57685 
869 2 65.5193 60.4039 -0.980843 
870 2 68.077 62.9616 -0.980843 
871 2 68.077 60.4039 1.57685 
872 2 65.5193 62.9616 1.57685 
873 2 70.6347 60.4039 -0.980843 
874 2 73.1924 62.9616 -0.980843 
875 2 73.1924 60.4039 1.57685 
876 2 70.6347 62.9616 1.57685 
877 2 75.7501 60.4039 -0.980843 
878 2 78.3078 62.9616 -0.980843 
879 2 78.3078 60.4039 1.57685 
880 2 75.7501 62.9616 1.57685 
881 2 80.8654 60.4039 -0.980843 
882 2 83.4231 62.9616 -0.980843 
883 2 83.4231 60.4039 1.57685 
884 2 80.8654 62.9616 1.57685 
885 2 -0.980843 65.5193 -0.980843 
886 2 1.57685 68.077 -0.980843 
887 2 1.57685 65.5193 1.57685 
888 2 -0.980843 68.077 1.57685 
889 2 4.13455 65.5193 -0.980843 
890 2 6.69225 68.077 -0.980843 
891 2 6.69225 65.5193 1.57685 
892 2 4.13455 68.077 1.57685 
893 2 9.24994 65.5193 -0.980843 
894 2 11.8076 68.077 -0.980843 
895 2 11.8076 65.5193 1.57685 
896 2 9.24994 68.077 1.57685 
897 2 14.3653 65.5193 -0.980843 
898 2 16.923 68.077 -0.980843 
899 2 16.923 65.5193 1.57685 
900 2 14.3653 68.077 1.57685 
901 2 19.4807 65.5193 -0.980843 
902 2 22.0384 68.077 -0.980843 
903 2 22.0384 65.5193 1.57685 
904 2 19.4807 68.077 1.57685 
905 2 24.5961 65.5193 -0.980843 
906 2 27.1538 68.077 -0.980843 
907 2 27.1538 65.5193 1.57685 
908 2 24.5961 68.077 1.57685 
909 2 29.7115 65.5193 -0.980843 
910 2 32.2692 68.077 -0.980843 
911 2 32.2692 65.5193 1.57685 
912 2 29.7115 68.077 1.57685 
913 2 34.8269 65.5193 -0.980843 
914 2 37.3846 68.077 -0.980843 
915 2 37.3846 65.5193 1.57685 
916 2 34.8269 68.077 1.57685 
917 2 39.9423 65.5193 -0.980843 
918 2 42.5 68.077 -0.980843 
919 2 42.5 65.5193 1.57685 
920 2 39.9423 68.077 1.57685 
921 2 45.0577 65.5193 -0.980843 
922 2 47.6154 68.077 -0.980843 
923 2 47.6154 65.5193 1.57685 
924 2 45.0577 68.077 1.57685 
925 2 50.1731 65.5193 -0.980843 
926 2 52.7308 68.077 -0.980843 
927 2 52.7308 65.5193 1.57685 
928 2 50.1731 68.077 1.57685 
929 2 55.2885 65.5193 -0.980843 
930 2 57.8462 68.077 -0.980843 
931 2 57.8462 65.5193 1.57685 
932 2 55.2885 68.077 1.57685 
933 2 60.4039 65.5193 -0.980843 
934 2 62.9616 68.077 -0.980843 
935 2 62.9616 65.5193 1.57685 
936 2 60.4039 68.077 1.57685 
937 2 65.5193 65.5193 -0.980843 
938 2 68.077 68.077 -0.980843 