ITEM: TIMESTEP
88
ITEM: NUMBER OF ATOMS
9826
ITEM: BOX BOUNDS pp pp pp
1.8233293860217827e+01 6.6766706139781832e+01
1.8233293860217827e+01 6.6766706139781832e+01
1.8233293860217827e+01 6.6766706139781832e+01
ITEM: ATOMS id type xu yu zu 
1 1 18.2333 18.2333 18.2333 
2 1 19.6607 19.6607 19.6607 
3 1 21.0882 18.2333 18.2333 
4 1 22.5157 19.6607 19.6607 
5 1 23.9431 18.2333 18.2333 
6 1 25.3706 19.6607 19.6607 
7 1 26.798 18.2333 18.2333 
8 1 28.2255 19.6607 19.6607 
9 1 29.6529 18.2333 18.2333 
10 1 31.0804 19.6607 19.6607 
11 1 32.5078 18.2333 18.2333 
12 1 33.9353 19.6607 19.6607 
13 1 35.3627 18.2333 18.2333 
14 1 36.7902 19.6607 19.6607 
15 1 38.2176 18.2333 18.2333 
16 1 39.6451 19.6607 19.6607 
17 1 41.0725 18.2333 18.2333 
18 1 42.5 19.6607 19.6607 
19 1 43.9275 18.2333 18.2333 
20 1 45.3549 19.6607 19.6607 
21 1 46.7824 18.2333 18.2333 
22 1 48.2098 19.6607 19.6607 
23 1 49.6373 18.2333 18.2333 
24 1 51.0647 19.6607 19.6607 
25 1 52.4922 18.2333 18.2333 
26 1 53.9196 19.6607 19.6607 
27 1 55.3471 18.2333 18.2333 
28 1 56.7745 19.6607 19.6607 
29 1 58.202 18.2333 18.2333 
30 1 59.6294 19.6607 19.6607 
31 1 61.0569 18.2333 18.2333 
32 1 62.4843 19.6607 19.6607 
33 1 63.9118 18.2333 18.2333 
34 1 65.3393 19.6607 19.6607 
35 1 18.2333 21.0882 18.2333 
36 1 19.6607 22.5157 19.6607 
37 1 21.0882 21.0882 18.2333 
38 1 22.5157 22.5157 19.6607 
39 1 23.9431 21.0882 18.2333 
40 1 25.3706 22.5157 19.6607 
41 1 26.798 21.0882 18.2333 
42 1 28.2255 22.5157 19.6607 
43 1 29.6529 21.0882 18.2333 
44 1 31.0804 22.5157 19.6607 
45 1 32.5078 21.0882 18.2333 
46 1 33.9353 22.5157 19.6607 
47 1 35.3627 21.0882 18.2333 
48 1 36.7902 22.5157 19.6607 
49 1 38.2176 21.0882 18.2333 
50 1 39.6451 22.5157 19.6607 
51 1 41.0725 21.0882 18.2333 
52 1 42.5 22.5157 19.6607 
53 1 43.9275 21.0882 18.2333 
54 1 45.3549 22.5157 19.6607 
55 1 46.7824 21.0882 18.2333 
56 1 48.2098 22.5157 19.6607 
57 1 49.6373 21.0882 18.2333 
58 1 51.0647 22.5157 19.6607 
59 1 52.4922 21.0882 18.2333 
60 1 53.9196 22.5157 19.6607 
61 1 55.3471 21.0882 18.2333 
62 1 56.7745 22.5157 19.6607 
63 1 58.202 21.0882 18.2333 
64 1 59.6294 22.5157 19.6607 
65 1 61.0569 21.0882 18.2333 
66 1 62.4843 22.5157 19.6607 
67 1 63.9118 21.0882 18.2333 
68 1 65.3393 22.5157 19.6607 
69 1 18.2333 23.9431 18.2333 
70 1 19.6607 25.3706 19.6607 
71 1 21.0882 23.9431 18.2333 
72 1 22.5157 25.3706 19.6607 
73 1 23.9431 23.9431 18.2333 
74 1 25.3706 25.3706 19.6607 
75 1 26.798 23.9431 18.2333 
76 1 28.2255 25.3706 19.6607 
77 1 29.6529 23.9431 18.2333 
78 1 31.0804 25.3706 19.6607 
79 1 32.5078 23.9431 18.2333 
80 1 33.9353 25.3706 19.6607 
81 1 35.3627 23.9431 18.2333 
82 1 36.7902 25.3706 19.6607 
83 1 38.2176 23.9431 18.2333 
84 1 39.6451 25.3706 19.6607 
85 1 41.0725 23.9431 18.2333 
86 1 42.5 25.3706 19.6607 
87 1 43.9275 23.9431 18.2333 
88 1 45.3549 25.3706 19.6607 
89 1 46.7824 23.9431 18.2333 
90 1 48.2098 25.3706 19.6607 
91 1 49.6373 23.9431 18.2333 
92 1 51.0647 25.3706 19.6607 
93 1 52.4922 23.9431 18.2333 
94 1 53.9196 25.3706 19.6607 
95 1 55.3471 23.9431 18.2333 
96 1 56.7745 25.3706 19.6607 
97 1 58.202 23.9431 18.2333 
98 1 59.6294 25.3706 19.6607 
99 1 61.0569 23.9431 18.2333 
100 1 62.4843 25.3706 19.6607 
101 1 63.9118 23.9431 18.2333 
102 1 65.3393 25.3706 19.6607 
103 1 18.2333 26.798 18.2333 
104 1 19.6607 28.2255 19.6607 
105 1 21.0882 26.798 18.2333 
106 1 22.5157 28.2255 19.6607 
107 1 23.9431 26.798 18.2333 
108 1 25.3706 28.2255 19.6607 
109 1 26.798 26.798 18.2333 
110 1 28.2255 28.2255 19.6607 
111 1 29.6529 26.798 18.2333 
112 1 31.0804 28.2255 19.6607 
113 1 32.5078 26.798 18.2333 
114 1 33.9353 28.2255 19.6607 
115 1 35.3627 26.798 18.2333 
116 1 36.7902 28.2255 19.6607 
117 1 38.2176 26.798 18.2333 
118 1 39.6451 28.2255 19.6607 
119 1 41.0725 26.798 18.2333 
120 1 42.5 28.2255 19.6607 
121 1 43.9275 26.798 18.2333 
122 1 45.3549 28.2255 19.6607 
123 1 46.7824 26.798 18.2333 
124 1 48.2098 28.2255 19.6607 
125 1 49.6373 26.798 18.2333 
126 1 51.0647 28.2255 19.6607 
127 1 52.4922 26.798 18.2333 
128 1 53.9196 28.2255 19.6607 
129 1 55.3471 26.798 18.2333 
130 1 56.7745 28.2255 19.6607 
131 1 58.202 26.798 18.2333 
132 1 59.6294 28.2255 19.6607 
133 1 61.0569 26.798 18.2333 
134 1 62.4843 28.2255 19.6607 
135 1 63.9118 26.798 18.2333 
136 1 65.3393 28.2255 19.6607 
137 1 18.2333 29.6529 18.2333 
138 1 19.6607 31.0804 19.6607 
139 1 21.0882 29.6529 18.2333 
140 1 22.5157 31.0804 19.6607 
141 1 23.9431 29.6529 18.2333 
142 1 25.3706 31.0804 19.6607 
143 1 26.798 29.6529 18.2333 
144 1 28.2255 31.0804 19.6607 
145 1 29.6529 29.6529 18.2333 
146 1 31.0804 31.0804 19.6607 
147 1 32.5078 29.6529 18.2333 
148 1 33.9353 31.0804 19.6607 
149 1 35.3627 29.6529 18.2333 
150 1 36.7902 31.0804 19.6607 
151 1 38.2176 29.6529 18.2333 
152 1 39.6451 31.0804 19.6607 
153 1 41.0725 29.6529 18.2333 
154 1 42.5 31.0804 19.6607 
155 1 43.9275 29.6529 18.2333 
156 1 45.3549 31.0804 19.6607 
157 1 46.7824 29.6529 18.2333 
158 1 48.2098 31.0804 19.6607 
159 1 49.6373 29.6529 18.2333 
160 1 51.0647 31.0804 19.6607 
161 1 52.4922 29.6529 18.2333 
162 1 53.9196 31.0804 19.6607 
163 1 55.3471 29.6529 18.2333 
164 1 56.7745 31.0804 19.6607 
165 1 58.202 29.6529 18.2333 
166 1 59.6294 31.0804 19.6607 
167 1 61.0569 29.6529 18.2333 
168 1 62.4843 31.0804 19.6607 
169 1 63.9118 29.6529 18.2333 
170 1 65.3393 31.0804 19.6607 
171 1 18.2333 32.5078 18.2333 
172 1 19.6607 33.9353 19.6607 
173 1 21.0882 32.5078 18.2333 
174 1 22.5157 33.9353 19.6607 
175 1 23.9431 32.5078 18.2333 
176 1 25.3706 33.9353 19.6607 
177 1 26.798 32.5078 18.2333 
178 1 28.2255 33.9353 19.6607 
179 1 29.6529 32.5078 18.2333 
180 1 31.0804 33.9353 19.6607 
181 1 32.5078 32.5078 18.2333 
182 1 33.9353 33.9353 19.6607 
183 1 35.3627 32.5078 18.2333 
184 1 36.7902 33.9353 19.6607 
185 1 38.2176 32.5078 18.2333 
186 1 39.6451 33.9353 19.6607 
187 1 41.0725 32.5078 18.2333 
188 1 42.5 33.9353 19.6607 
189 1 43.9275 32.5078 18.2333 
190 1 45.3549 33.9353 19.6607 
191 1 46.7824 32.5078 18.2333 
192 1 48.2098 33.9353 19.6607 
193 1 49.6373 32.5078 18.2333 
194 1 51.0647 33.9353 19.6607 
195 1 52.4922 32.5078 18.2333 
196 1 53.9196 33.9353 19.6607 
197 1 55.3471 32.5078 18.2333 
198 1 56.7745 33.9353 19.6607 
199 1 58.202 32.5078 18.2333 
200 1 59.6294 33.9353 19.6607 
201 1 61.0569 32.5078 18.2333 
202 1 62.4843 33.9353 19.6607 
203 1 63.9118 32.5078 18.2333 
204 1 65.3393 33.9353 19.6607 
205 1 18.2333 35.3627 18.2333 
206 1 19.6607 36.7902 19.6607 
207 1 21.0882 35.3627 18.2333 
208 1 22.5157 36.7902 19.6607 
209 1 23.9431 35.3627 18.2333 
210 1 25.3706 36.7902 19.6607 
211 1 26.798 35.3627 18.2333 
212 1 28.2255 36.7902 19.6607 
213 1 29.6529 35.3627 18.2333 
214 1 31.0804 36.7902 19.6607 
215 1 32.5078 35.3627 18.2333 
216 1 33.9353 36.7902 19.6607 
217 1 35.3627 35.3627 18.2333 
218 1 36.7902 36.7902 19.6607 
219 1 38.2176 35.3627 18.2333 
220 1 39.6451 36.7902 19.6607 
221 1 41.0725 35.3627 18.2333 
222 1 42.5 36.7902 19.6607 
223 1 43.9275 35.3627 18.2333 
224 1 45.3549 36.7902 19.6607 
225 1 46.7824 35.3627 18.2333 
226 1 48.2098 36.7902 19.6607 
227 1 49.6373 35.3627 18.2333 
228 1 51.0647 36.7902 19.6607 
229 1 52.4922 35.3627 18.2333 
230 1 53.9196 36.7902 19.6607 
231 1 55.3471 35.3627 18.2333 
232 1 56.7745 36.7902 19.6607 
233 1 58.202 35.3627 18.2333 
234 1 59.6294 36.7902 19.6607 
235 1 61.0569 35.3627 18.2333 
236 1 62.4843 36.7902 19.6607 
237 1 63.9118 35.3627 18.2333 
238 1 65.3393 36.7902 19.6607 
239 1 18.2333 38.2176 18.2333 
240 1 19.6607 39.6451 19.6607 
241 1 21.0882 38.2176 18.2333 
242 1 22.5157 39.6451 19.6607 
243 1 23.9431 38.2176 18.2333 
244 1 25.3706 39.6451 19.6607 
245 1 26.798 38.2176 18.2333 
246 1 28.2255 39.6451 19.6607 
247 1 29.6529 38.2176 18.2333 
248 1 31.0804 39.6451 19.6607 
249 1 32.5078 38.2176 18.2333 
250 1 33.9353 39.6451 19.6607 
251 1 35.3627 38.2176 18.2333 
252 1 36.7902 39.6451 19.6607 
253 1 38.2176 38.2176 18.2333 
254 1 39.6451 39.6451 19.6607 
255 1 41.0725 38.2176 18.2333 
256 1 42.5 39.6451 19.6607 
257 1 43.9275 38.2176 18.2333 
258 1 45.3549 39.6451 19.6607 
259 1 46.7824 38.2176 18.2333 
260 1 48.2098 39.6451 19.6607 
261 1 49.6373 38.2176 18.2333 
262 1 51.0647 39.6451 19.6607 
263 1 52.4922 38.2176 18.2333 
264 1 53.9196 39.6451 19.6607 
265 1 55.3471 38.2176 18.2333 
266 1 56.7745 39.6451 19.6607 
267 1 58.202 38.2176 18.2333 
268 1 59.6294 39.6451 19.6607 
269 1 61.0569 38.2176 18.2333 
270 1 62.4843 39.6451 19.6607 
271 1 63.9118 38.2176 18.2333 
272 1 65.3393 39.6451 19.6607 
273 1 18.2333 41.0725 18.2333 
274 1 19.6607 42.5 19.6607 
275 1 21.0882 41.0725 18.2333 
276 1 22.5157 42.5 19.6607 
277 1 23.9431 41.0725 18.2333 
278 1 25.3706 42.5 19.6607 
279 1 26.798 41.0725 18.2333 
280 1 28.2255 42.5 19.6607 
281 1 29.6529 41.0725 18.2333 
282 1 31.0804 42.5 19.6607 
283 1 32.5078 41.0725 18.2333 
284 1 33.9353 42.5 19.6607 
285 1 35.3627 41.0725 18.2333 
286 1 36.7902 42.5 19.6607 
287 1 38.2176 41.0725 18.2333 
288 1 39.6451 42.5 19.6607 
289 1 41.0725 41.0725 18.2333 
290 1 42.5 42.5 19.6607 
291 1 43.9275 41.0725 18.2333 
292 1 45.3549 42.5 19.6607 
293 1 46.7824 41.0725 18.2333 
294 1 48.2098 42.5 19.6607 
295 1 49.6373 41.0725 18.2333 
296 1 51.0647 42.5 19.6607 
297 1 52.4922 41.0725 18.2333 
298 1 53.9196 42.5 19.6607 
299 1 55.3471 41.0725 18.2333 
300 1 56.7745 42.5 19.6607 
301 1 58.202 41.0725 18.2333 
302 1 59.6294 42.5 19.6607 
303 1 61.0569 41.0725 18.2333 
304 1 62.4843 42.5 19.6607 
305 1 63.9118 41.0725 18.2333 
306 1 65.3393 42.5 19.6607 
307 1 18.2333 43.9275 18.2333 
308 1 19.6607 45.3549 19.6607 
309 1 21.0882 43.9275 18.2333 
310 1 22.5157 45.3549 19.6607 
311 1 23.9431 43.9275 18.2333 
312 1 25.3706 45.3549 19.6607 
313 1 26.798 43.9275 18.2333 
314 1 28.2255 45.3549 19.6607 
315 1 29.6529 43.9275 18.2333 
316 1 31.0804 45.3549 19.6607 
317 1 32.5078 43.9275 18.2333 
318 1 33.9353 45.3549 19.6607 
319 1 35.3627 43.9275 18.2333 
320 1 36.7902 45.3549 19.6607 
321 1 38.2176 43.9275 18.2333 
322 1 39.6451 45.3549 19.6607 
323 1 41.0725 43.9275 18.2333 
324 1 42.5 45.3549 19.6607 
325 1 43.9275 43.9275 18.2333 
326 1 45.3549 45.3549 19.6607 
327 1 46.7824 43.9275 18.2333 
328 1 48.2098 45.3549 19.6607 
329 1 49.6373 43.9275 18.2333 
330 1 51.0647 45.3549 19.6607 
331 1 52.4922 43.9275 18.2333 
332 1 53.9196 45.3549 19.6607 
333 1 55.3471 43.9275 18.2333 
334 1 56.7745 45.3549 19.6607 
335 1 58.202 43.9275 18.2333 
336 1 59.6294 45.3549 19.6607 
337 1 61.0569 43.9275 18.2333 
338 1 62.4843 45.3549 19.6607 
339 1 63.9118 43.9275 18.2333 
340 1 65.3393 45.3549 19.6607 
341 1 18.2333 46.7824 18.2333 
342 1 19.6607 48.2098 19.6607 
343 1 21.0882 46.7824 18.2333 
344 1 22.5157 48.2098 19.6607 
345 1 23.9431 46.7824 18.2333 
346 1 25.3706 48.2098 19.6607 
347 1 26.798 46.7824 18.2333 
348 1 28.2255 48.2098 19.6607 
349 1 29.6529 46.7824 18.2333 
350 1 31.0804 48.2098 19.6607 
351 1 32.5078 46.7824 18.2333 
352 1 33.9353 48.2098 19.6607 
353 1 35.3627 46.7824 18.2333 
354 1 36.7902 48.2098 19.6607 
355 1 38.2176 46.7824 18.2333 
356 1 39.6451 48.2098 19.6607 
357 1 41.0725 46.7824 18.2333 
358 1 42.5 48.2098 19.6607 
359 1 43.9275 46.7824 18.2333 
360 1 45.3549 48.2098 19.6607 
361 1 46.7824 46.7824 18.2333 
362 1 48.2098 48.2098 19.6607 
363 1 49.6373 46.7824 18.2333 
364 1 51.0647 48.2098 19.6607 
365 1 52.4922 46.7824 18.2333 
366 1 53.9196 48.2098 19.6607 
367 1 55.3471 46.7824 18.2333 
368 1 56.7745 48.2098 19.6607 
369 1 58.202 46.7824 18.2333 
370 1 59.6294 48.2098 19.6607 
371 1 61.0569 46.7824 18.2333 
372 1 62.4843 48.2098 19.6607 
373 1 63.9118 46.7824 18.2333 
374 1 65.3393 48.2098 19.6607 
375 1 18.2333 49.6373 18.2333 
376 1 19.6607 51.0647 19.6607 
377 1 21.0882 49.6373 18.2333 
378 1 22.5157 51.0647 19.6607 
379 1 23.9431 49.6373 18.2333 
380 1 25.3706 51.0647 19.6607 
381 1 26.798 49.6373 18.2333 
382 1 28.2255 51.0647 19.6607 
383 1 29.6529 49.6373 18.2333 
384 1 31.0804 51.0647 19.6607 
385 1 32.5078 49.6373 18.2333 
386 1 33.9353 51.0647 19.6607 
387 1 35.3627 49.6373 18.2333 
388 1 36.7902 51.0647 19.6607 
389 1 38.2176 49.6373 18.2333 
390 1 39.6451 51.0647 19.6607 
391 1 41.0725 49.6373 18.2333 
392 1 42.5 51.0647 19.6607 
393 1 43.9275 49.6373 18.2333 
394 1 45.3549 51.0647 19.6607 
395 1 46.7824 49.6373 18.2333 
396 1 48.2098 51.0647 19.6607 
397 1 49.6373 49.6373 18.2333 
398 1 51.0647 51.0647 19.6607 
399 1 52.4922 49.6373 18.2333 
400 1 53.9196 51.0647 19.6607 
401 1 55.3471 49.6373 18.2333 
402 1 56.7745 51.0647 19.6607 
403 1 58.202 49.6373 18.2333 
404 1 59.6294 51.0647 19.6607 
405 1 61.0569 49.6373 18.2333 
406 1 62.4843 51.0647 19.6607 
407 1 63.9118 49.6373 18.2333 
408 1 65.3393 51.0647 19.6607 
409 1 18.2333 52.4922 18.2333 
410 1 19.6607 53.9196 19.6607 
411 1 21.0882 52.4922 18.2333 
412 1 22.5157 53.9196 19.6607 
413 1 23.9431 52.4922 18.2333 
414 1 25.3706 53.9196 19.6607 
415 1 26.798 52.4922 18.2333 
416 1 28.2255 53.9196 19.6607 
417 1 29.6529 52.4922 18.2333 
418 1 31.0804 53.9196 19.6607 
419 1 32.5078 52.4922 18.2333 
420 1 33.9353 53.9196 19.6607 
421 1 35.3627 52.4922 18.2333 
422 1 36.7902 53.9196 19.6607 
423 1 38.2176 52.4922 18.2333 
424 1 39.6451 53.9196 19.6607 
425 1 41.0725 52.4922 18.2333 
426 1 42.5 53.9196 19.6607 
427 1 43.9275 52.4922 18.2333 
428 1 45.3549 53.9196 19.6607 
429 1 46.7824 52.4922 18.2333 
430 1 48.2098 53.9196 19.6607 
431 1 49.6373 52.4922 18.2333 
432 1 51.0647 53.9196 19.6607 
433 1 52.4922 52.4922 18.2333 
434 1 53.9196 53.9196 19.6607 
435 1 55.3471 52.4922 18.2333 
436 1 56.7745 53.9196 19.6607 
437 1 58.202 52.4922 18.2333 
438 1 59.6294 53.9196 19.6607 
439 1 61.0569 52.4922 18.2333 
440 1 62.4843 53.9196 19.6607 
441 1 63.9118 52.4922 18.2333 
442 1 65.3393 53.9196 19.6607 
443 1 18.2333 55.3471 18.2333 
444 1 19.6607 56.7745 19.6607 
445 1 21.0882 55.3471 18.2333 
446 1 22.5157 56.7745 19.6607 
447 1 23.9431 55.3471 18.2333 
448 1 25.3706 56.7745 19.6607 
449 1 26.798 55.3471 18.2333 
450 1 28.2255 56.7745 19.6607 
451 1 29.6529 55.3471 18.2333 
452 1 31.0804 56.7745 19.6607 
453 1 32.5078 55.3471 18.2333 
454 1 33.9353 56.7745 19.6607 
455 1 35.3627 55.3471 18.2333 
456 1 36.7902 56.7745 19.6607 
457 1 38.2176 55.3471 18.2333 
458 1 39.6451 56.7745 19.6607 
459 1 41.0725 55.3471 18.2333 
460 1 42.5 56.7745 19.6607 
461 1 43.9275 55.3471 18.2333 
462 1 45.3549 56.7745 19.6607 
463 1 46.7824 55.3471 18.2333 
464 1 48.2098 56.7745 19.6607 
465 1 49.6373 55.3471 18.2333 
466 1 51.0647 56.7745 19.6607 
467 1 52.4922 55.3471 18.2333 
468 1 53.9196 56.7745 19.6607 
469 1 55.3471 55.3471 18.2333 
470 1 56.7745 56.7745 19.6607 
471 1 58.202 55.3471 18.2333 
472 1 59.6294 56.7745 19.6607 
473 1 61.0569 55.3471 18.2333 
474 1 62.4843 56.7745 19.6607 
475 1 63.9118 55.3471 18.2333 
476 1 65.3393 56.7745 19.6607 
477 1 18.2333 58.202 18.2333 
478 1 19.6607 59.6294 19.6607 
479 1 21.0882 58.202 18.2333 
480 1 22.5157 59.6294 19.6607 
481 1 23.9431 58.202 18.2333 
482 1 25.3706 59.6294 19.6607 
483 1 26.798 58.202 18.2333 
484 1 28.2255 59.6294 19.6607 
485 1 29.6529 58.202 18.2333 
486 1 31.0804 59.6294 19.6607 
487 1 32.5078 58.202 18.2333 
488 1 33.9353 59.6294 19.6607 
489 1 35.3627 58.202 18.2333 
490 1 36.7902 59.6294 19.6607 
491 1 38.2176 58.202 18.2333 
492 1 39.6451 59.6294 19.6607 
493 1 41.0725 58.202 18.2333 
494 1 42.5 59.6294 19.6607 
495 1 43.9275 58.202 18.2333 
496 1 45.3549 59.6294 19.6607 
497 1 46.7824 58.202 18.2333 
498 1 48.2098 59.6294 19.6607 
499 1 49.6373 58.202 18.2333 
500 1 51.0647 59.6294 19.6607 
501 1 52.4922 58.202 18.2333 
502 1 53.9196 59.6294 19.6607 
503 1 55.3471 58.202 18.2333 
504 1 56.7745 59.6294 19.6607 
505 1 58.202 58.202 18.2333 
506 1 59.6294 59.6294 19.6607 
507 1 61.0569 58.202 18.2333 
508 1 62.4843 59.6294 19.6607 
509 1 63.9118 58.202 18.2333 
510 1 65.3393 59.6294 19.6607 
511 1 18.2333 61.0569 18.2333 
512 1 19.6607 62.4843 19.6607 
513 1 21.0882 61.0569 18.2333 
514 1 22.5157 62.4843 19.6607 
515 1 23.9431 61.0569 18.2333 
516 1 25.3706 62.4843 19.6607 
517 1 26.798 61.0569 18.2333 
518 1 28.2255 62.4843 19.6607 
519 1 29.6529 61.0569 18.2333 
520 1 31.0804 62.4843 19.6607 
521 1 32.5078 61.0569 18.2333 
522 1 33.9353 62.4843 19.6607 
523 1 35.3627 61.0569 18.2333 
524 1 36.7902 62.4843 19.6607 
525 1 38.2176 61.0569 18.2333 
526 1 39.6451 62.4843 19.6607 
527 1 41.0725 61.0569 18.2333 
528 1 42.5 62.4843 19.6607 
529 1 43.9275 61.0569 18.2333 
530 1 45.3549 62.4843 19.6607 
531 1 46.7824 61.0569 18.2333 
532 1 48.2098 62.4843 19.6607 
533 1 49.6373 61.0569 18.2333 
534 1 51.0647 62.4843 19.6607 
535 1 52.4922 61.0569 18.2333 
536 1 53.9196 62.4843 19.6607 
537 1 55.3471 61.0569 18.2333 
538 1 56.7745 62.4843 19.6607 
539 1 58.202 61.0569 18.2333 
540 1 59.6294 62.4843 19.6607 
541 1 61.0569 61.0569 18.2333 
542 1 62.4843 62.4843 19.6607 
543 1 63.9118 61.0569 18.2333 
544 1 65.3393 62.4843 19.6607 
545 1 18.2333 63.9118 18.2333 
546 1 19.6607 65.3393 19.6607 
547 1 21.0882 63.9118 18.2333 
548 1 22.5157 65.3393 19.6607 
549 1 23.9431 63.9118 18.2333 
550 1 25.3706 65.3393 19.6607 
551 1 26.798 63.9118 18.2333 
552 1 28.2255 65.3393 19.6607 
553 1 29.6529 63.9118 18.2333 
554 1 31.0804 65.3393 19.6607 
555 1 32.5078 63.9118 18.2333 
556 1 33.9353 65.3393 19.6607 
557 1 35.3627 63.9118 18.2333 
558 1 36.7902 65.3393 19.6607 
559 1 38.2176 63.9118 18.2333 
560 1 39.6451 65.3393 19.6607 
561 1 41.0725 63.9118 18.2333 
562 1 42.5 65.3393 19.6607 
563 1 43.9275 63.9118 18.2333 
564 1 45.3549 65.3393 19.6607 
565 1 46.7824 63.9118 18.2333 
566 1 48.2098 65.3393 19.6607 
567 1 49.6373 63.9118 18.2333 
568 1 51.0647 65.3393 19.6607 
569 1 52.4922 63.9118 18.2333 
570 1 53.9196 65.3393 19.6607 
571 1 55.3471 63.9118 18.2333 
572 1 56.7745 65.3393 19.6607 
573 1 58.202 63.9118 18.2333 
574 1 59.6294 65.3393 19.6607 
575 1 61.0569 63.9118 18.2333 
576 1 62.4843 65.3393 19.6607 
577 1 63.9118 63.9118 18.2333 
578 1 65.3393 65.3393 19.6607 
579 1 18.2333 18.2333 21.0882 
580 1 19.6607 19.6607 22.5157 
581 1 21.0882 18.2333 21.0882 
582 1 22.5157 19.6607 22.5157 
583 1 23.9431 18.2333 21.0882 
584 1 25.3706 19.6607 22.5157 
585 1 26.798 18.2333 21.0882 
586 1 28.2255 19.6607 22.5157 
587 1 29.6529 18.2333 21.0882 
588 1 31.0804 19.6607 22.5157 
589 1 32.5078 18.2333 21.0882 
590 1 33.9353 19.6607 22.5157 
591 1 35.3627 18.2333 21.0882 
592 1 36.7902 19.6607 22.5157 
593 1 38.2176 18.2333 21.0882 
594 1 39.6451 19.6607 22.5157 
595 1 41.0725 18.2333 21.0882 
596 1 42.5 19.6607 22.5157 
597 1 43.9275 18.2333 21.0882 
598 1 45.3549 19.6607 22.5157 
599 1 46.7824 18.2333 21.0882 
600 1 48.2098 19.6607 22.5157 
601 1 49.6373 18.2333 21.0882 
602 1 51.0647 19.6607 22.5157 
603 1 52.4922 18.2333 21.0882 
604 1 53.9196 19.6607 22.5157 
605 1 55.3471 18.2333 21.0882 
606 1 56.7745 19.6607 22.5157 
607 1 58.202 18.2333 21.0882 
608 1 59.6294 19.6607 22.5157 
609 1 61.0569 18.2333 21.0882 
610 1 62.4843 19.6607 22.5157 
611 1 63.9118 18.2333 21.0882 
612 1 65.3393 19.6607 22.5157 
613 1 18.2333 21.0882 21.0882 
614 1 19.6607 22.5157 22.5157 
615 1 21.0882 21.0882 21.0882 
616 1 22.5157 22.5157 22.5157 
617 1 23.9431 21.0882 21.0882 
618 1 25.3706 22.5157 22.5157 
619 1 26.798 21.0882 21.0882 
620 1 28.2255 22.5157 22.5157 
621 1 29.6529 21.0882 21.0882 
622 1 31.0804 22.5157 22.5157 
623 1 32.5078 21.0882 21.0882 
624 1 33.9353 22.5157 22.5157 
625 1 35.3627 21.0882 21.0882 
626 1 36.7902 22.5157 22.5157 
627 1 38.2176 21.0882 21.0882 
628 1 39.6451 22.5157 22.5157 
629 1 41.0725 21.0882 21.0882 
630 1 42.5 22.5157 22.5157 
631 1 43.9275 21.0882 21.0882 
632 1 45.3549 22.5157 22.5157 
633 1 46.7824 21.0882 21.0882 
634 1 48.2098 22.5157 22.5157 
635 1 49.6373 21.0882 21.0882 
636 1 51.0647 22.5157 22.5157 
637 1 52.4922 21.0882 21.0882 
638 1 53.9196 22.5157 22.5157 
639 1 55.3471 21.0882 21.0882 
640 1 56.7745 22.5157 22.5157 
641 1 58.202 21.0882 21.0882 
642 1 59.6294 22.5157 22.5157 
643 1 61.0569 21.0882 21.0882 
644 1 62.4843 22.5157 22.5157 
645 1 63.9118 21.0882 21.0882 
646 1 65.3393 22.5157 22.5157 
647 1 18.2333 23.9431 21.0882 
648 1 19.6607 25.3706 22.5157 
649 1 21.0882 23.9431 21.0882 
650 1 22.5157 25.3706 22.5157 
651 1 23.9431 23.9431 21.0882 
652 1 25.3706 25.3706 22.5157 
653 1 26.798 23.9431 21.0882 
654 1 28.2255 25.3706 22.5157 
655 1 29.6529 23.9431 21.0882 
656 1 31.0804 25.3706 22.5157 
657 1 32.5078 23.9431 21.0882 
658 1 33.9353 25.3706 22.5157 
659 1 35.3627 23.9431 21.0882 
660 1 36.7902 25.3706 22.5157 
661 1 38.2176 23.9431 21.0882 
662 1 39.6451 25.3706 22.5157 
663 1 41.0725 23.9431 21.0882 
664 1 42.5 25.3706 22.5157 
665 1 43.9275 23.9431 21.0882 
666 1 45.3549 25.3706 22.5157 
667 1 46.7824 23.9431 21.0882 
668 1 48.2098 25.3706 22.5157 
669 1 49.6373 23.9431 21.0882 
670 1 51.0647 25.3706 22.5157 
671 1 52.4922 23.9431 21.0882 
672 1 53.9196 25.3706 22.5157 
673 1 55.3471 23.9431 21.0882 
674 1 56.7745 25.3706 22.5157 
675 1 58.202 23.9431 21.0882 
676 1 59.6294 25.3706 22.5157 
677 1 61.0569 23.9431 21.0882 
678 1 62.4843 25.3706 22.5157 
679 1 63.9118 23.9431 21.0882 
680 1 65.3393 25.3706 22.5157 
681 1 18.2333 26.798 21.0882 
682 1 19.6607 28.2255 22.5157 
683 1 21.0882 26.798 21.0882 
684 1 22.5157 28.2255 22.5157 
685 1 23.9431 26.798 21.0882 
686 1 25.3706 28.2255 22.5157 
687 1 26.798 26.798 21.0882 
688 1 28.2255 28.2255 22.5157 
689 1 29.6529 26.798 21.0882 
690 1 31.0804 28.2255 22.5157 
691 1 32.5078 26.798 21.0882 
692 1 33.9353 28.2255 22.5157 
693 1 35.3627 26.798 21.0882 
694 1 36.7902 28.2255 22.5157 
695 1 38.2176 26.798 21.0882 
696 1 39.6451 28.2255 22.5157 
697 1 41.0725 26.798 21.0882 
698 1 42.5 28.2255 22.5157 
699 1 43.9275 26.798 21.0882 
700 1 45.3549 28.2255 22.5157 
701 1 46.7824 26.798 21.0882 
702 1 48.2098 28.2255 22.5157 
703 1 49.6373 26.798 21.0882 
704 1 51.0647 28.2255 22.5157 
705 1 52.4922 26.798 21.0882 
706 1 53.9196 28.2255 22.5157 
707 1 55.3471 26.798 21.0882 
708 1 56.7745 28.2255 22.5157 
709 1 58.202 26.798 21.0882 
710 1 59.6294 28.2255 22.5157 
711 1 61.0569 26.798 21.0882 
712 1 62.4843 28.2255 22.5157 
713 1 63.9118 26.798 21.0882 
714 1 65.3393 28.2255 22.5157 
715 1 18.2333 29.6529 21.0882 
716 1 19.6607 31.0804 22.5157 
717 1 21.0882 29.6529 21.0882 
718 1 22.5157 31.0804 22.5157 
719 1 23.9431 29.6529 21.0882 
720 1 25.3706 31.0804 22.5157 
721 1 26.798 29.6529 21.0882 
722 1 28.2255 31.0804 22.5157 
723 1 29.6529 29.6529 21.0882 
724 1 31.0804 31.0804 22.5157 
725 1 32.5078 29.6529 21.0882 
726 1 33.9353 31.0804 22.5157 
727 1 35.3627 29.6529 21.0882 
728 1 36.7902 31.0804 22.5157 
729 1 38.2176 29.6529 21.0882 
730 1 39.6451 31.0804 22.5157 
731 1 41.0725 29.6529 21.0882 
732 1 42.5 31.0804 22.5157 
733 1 43.9275 29.6529 21.0882 
734 1 45.3549 31.0804 22.5157 
735 1 46.7824 29.6529 21.0882 
736 1 48.2098 31.0804 22.5157 
737 1 49.6373 29.6529 21.0882 
738 1 51.0647 31.0804 22.5157 
739 1 52.4922 29.6529 21.0882 
740 1 53.9196 31.0804 22.5157 
741 1 55.3471 29.6529 21.0882 
742 1 56.7745 31.0804 22.5157 
743 1 58.202 29.6529 21.0882 
744 1 59.6294 31.0804 22.5157 
745 1 61.0569 29.6529 21.0882 
746 1 62.4843 31.0804 22.5157 
747 1 63.9118 29.6529 21.0882 
748 1 65.3393 31.0804 22.5157 
749 1 18.2333 32.5078 21.0882 
750 1 19.6607 33.9353 22.5157 
751 1 21.0882 32.5078 21.0882 
752 1 22.5157 33.9353 22.5157 
753 1 23.9431 32.5078 21.0882 
754 1 25.3706 33.9353 22.5157 
755 1 26.798 32.5078 21.0882 
756 1 28.2255 33.9353 22.5157 
757 1 29.6529 32.5078 21.0882 
758 1 31.0804 33.9353 22.5157 
759 1 32.5078 32.5078 21.0882 
760 1 33.9353 33.9353 22.5157 
761 1 35.3627 32.5078 21.0882 
762 1 36.7902 33.9353 22.5157 
763 1 38.2176 32.5078 21.0882 
764 1 39.6451 33.9353 22.5157 
765 1 41.0725 32.5078 21.0882 
766 1 42.5 33.9353 22.5157 
767 1 43.9275 32.5078 21.0882 
768 1 45.3549 33.9353 22.5157 
769 1 46.7824 32.5078 21.0882 
770 1 48.2098 33.9353 22.5157 
771 1 49.6373 32.5078 21.0882 
772 1 51.0647 33.9353 22.5157 
773 1 52.4922 32.5078 21.0882 
774 1 53.9196 33.9353 22.5157 
775 1 55.3471 32.5078 21.0882 
776 1 56.7745 33.9353 22.5157 
777 1 58.202 32.5078 21.0882 
778 1 59.6294 33.9353 22.5157 
779 1 61.0569 32.5078 21.0882 
780 1 62.4843 33.9353 22.5157 
781 1 63.9118 32.5078 21.0882 
782 1 65.3393 33.9353 22.5157 
783 1 18.2333 35.3627 21.0882 
784 1 19.6607 36.7902 22.5157 
785 1 21.0882 35.3627 21.0882 
786 1 22.5157 36.7902 22.5157 
787 1 23.9431 35.3627 21.0882 
788 1 25.3706 36.7902 22.5157 
789 1 26.798 35.3627 21.0882 
790 1 28.2255 36.7902 22.5157 
791 1 29.6529 35.3627 21.0882 
792 1 31.0804 36.7902 22.5157 
793 1 32.5078 35.3627 21.0882 
794 1 33.9353 36.7902 22.5157 
795 1 35.3627 35.3627 21.0882 
796 1 36.7902 36.7902 22.5157 
797 1 38.2176 35.3627 21.0882 
798 1 39.6451 36.7902 22.5157 
799 1 41.0725 35.3627 21.0882 
800 1 42.5 36.7902 22.5157 
801 1 43.9275 35.3627 21.0882 
802 1 45.3549 36.7902 22.5157 
803 1 46.7824 35.3627 21.0882 
804 1 48.2098 36.7902 22.5157 
805 1 49.6373 35.3627 21.0882 
806 1 51.0647 36.7902 22.5157 
807 1 52.4922 35.3627 21.0882 
808 1 53.9196 36.7902 22.5157 
809 1 55.3471 35.3627 21.0882 
810 1 56.7745 36.7902 22.5157 
811 1 58.202 35.3627 21.0882 
812 1 59.6294 36.7902 22.5157 
813 1 61.0569 35.3627 21.0882 
814 1 62.4843 36.7902 22.5157 
815 1 63.9118 35.3627 21.0882 
816 1 65.3393 36.7902 22.5157 
817 1 18.2333 38.2176 21.0882 
818 1 19.6607 39.6451 22.5157 
819 1 21.0882 38.2176 21.0882 
820 1 22.5157 39.6451 22.5157 
821 1 23.9431 38.2176 21.0882 
822 1 25.3706 39.6451 22.5157 
823 1 26.798 38.2176 21.0882 
824 1 28.2255 39.6451 22.5157 
825 1 29.6529 38.2176 21.0882 
826 1 31.0804 39.6451 22.5157 
827 1 32.5078 38.2176 21.0882 
828 1 33.9353 39.6451 22.5157 
829 1 35.3627 38.2176 21.0882 
830 1 36.7902 39.6451 22.5157 
831 1 38.2176 38.2176 21.0882 
832 1 39.6451 39.6451 22.5157 
833 1 41.0725 38.2176 21.0882 
834 1 42.5 39.6451 22.5157 
835 1 43.9275 38.2176 21.0882 
836 1 45.3549 39.6451 22.5157 
837 1 46.7824 38.2176 21.0882 
838 1 48.2098 39.6451 22.5157 
839 1 49.6373 38.2176 21.0882 
840 1 51.0647 39.6451 22.5157 
841 1 52.4922 38.2176 21.0882 
842 1 53.9196 39.6451 22.5157 
843 1 55.3471 38.2176 21.0882 
844 1 56.7745 39.6451 22.5157 
845 1 58.202 38.2176 21.0882 
846 1 59.6294 39.6451 22.5157 
847 1 61.0569 38.2176 21.0882 
848 1 62.4843 39.6451 22.5157 
849 1 63.9118 38.2176 21.0882 
850 1 65.3393 39.6451 22.5157 
851 1 18.2333 41.0725 21.0882 
852 1 19.6607 42.5 22.5157 
853 1 21.0882 41.0725 21.0882 
854 1 22.5157 42.5 22.5157 
855 1 23.9431 41.0725 21.0882 
856 1 25.3706 42.5 22.5157 
857 1 26.798 41.0725 21.0882 
858 1 28.2255 42.5 22.5157 
859 1 29.6529 41.0725 21.0882 
860 1 31.0804 42.5 22.5157 
861 1 32.5078 41.0725 21.0882 
862 1 33.9353 42.5 22.5157 
863 1 35.3627 41.0725 21.0882 
864 1 36.7902 42.5 22.5157 
865 1 38.2176 41.0725 21.0882 
866 1 39.6451 42.5 22.5157 
867 1 41.0725 41.0725 21.0882 
868 1 42.5 42.5 22.5157 
869 1 43.9275 41.0725 21.0882 
870 1 45.3549 42.5 22.5157 
871 1 46.7824 41.0725 21.0882 
872 1 48.2098 42.5 22.5157 
873 1 49.6373 41.0725 21.0882 
874 1 51.0647 42.5 22.5157 
875 1 52.4922 41.0725 21.0882 
876 1 53.9196 42.5 22.5157 
877 1 55.3471 41.0725 21.0882 
878 1 56.7745 42.5 22.5157 
879 1 58.202 41.0725 21.0882 
880 1 59.6294 42.5 22.5157 
881 1 61.0569 41.0725 21.0882 
882 1 62.4843 42.5 22.5157 
883 1 63.9118 41.0725 21.0882 
884 1 65.3393 42.5 22.5157 
885 1 18.2333 43.9275 21.0882 
886 1 19.6607 45.3549 22.5157 
887 1 21.0882 43.9275 21.0882 
888 1 22.5157 45.3549 22.5157 
889 1 23.9431 43.9275 21.0882 
890 1 25.3706 45.3549 22.5157 
891 1 26.798 43.9275 21.0882 
892 1 28.2255 45.3549 22.5157 
893 1 29.6529 43.9275 21.0882 
894 1 31.0804 45.3549 22.5157 
895 1 32.5078 43.9275 21.0882 
896 1 33.9353 45.3549 22.5157 
897 1 35.3627 43.9275 21.0882 
898 1 36.7902 45.3549 22.5157 
899 1 38.2176 43.9275 21.0882 
900 1 39.6451 45.3549 22.5157 
901 1 41.0725 43.9275 21.0882 
902 1 42.5 45.3549 22.5157 
903 1 43.9275 43.9275 21.0882 
904 1 45.3549 45.3549 22.5157 
905 1 46.7824 43.9275 21.0882 
906 1 48.2098 45.3549 22.5157 
907 1 49.6373 43.9275 21.0882 
908 1 51.0647 45.3549 22.5157 
909 1 52.4922 43.9275 21.0882 
910 1 53.9196 45.3549 22.5157 
911 1 55.3471 43.9275 21.0882 
912 1 56.7745 45.3549 22.5157 
913 1 58.202 43.9275 21.0882 
914 1 59.6294 45.3549 22.5157 
915 1 61.0569 43.9275 21.0882 
916 1 62.4843 45.3549 22.5157 
917 1 63.9118 43.9275 21.0882 
918 1 65.3393 45.3549 22.5157 
919 1 18.2333 46.7824 21.0882 
920 1 19.6607 48.2098 22.5157 
921 1 21.0882 46.7824 21.0882 
922 1 22.5157 48.2098 22.5157 
923 1 23.9431 46.7824 21.0882 
924 1 25.3706 48.2098 22.5157 
925 1 26.798 46.7824 21.0882 
926 1 28.2255 48.2098 22.5157 
927 1 29.6529 46.7824 21.0882 
928 1 31.0804 48.2098 22.5157 
929 1 32.5078 46.7824 21.0882 
930 1 33.9353 48.2098 22.5157 
931 1 35.3627 46.7824 21.0882 
932 1 36.7902 48.2098 22.5157 
933 1 38.2176 46.7824 21.0882 
934 1 39.6451 48.2098 22.5157 
935 1 41.0725 46.7824 21.0882 
936 1 42.5 48.2098 22.5157 
937 1 43.9275 46.7824 21.0882 
938 1 45.3549 48.2098 22.5157 
939 1 46.7824 46.7824 21.0882 
940 1 48.2098 48.2098 22.5157 
941 1 49.6373 46.7824 21.0882 
942 1 51.0647 48.2098 22.5157 
943 1 52.4922 46.7824 21.0882 
944 1 53.9196 48.2098 22.5157 
945 1 55.3471 46.7824 21.0882 
946 1 56.7745 48.2098 22.5157 
947 1 58.202 46.7824 21.0882 
948 1 59.6294 48.2098 22.5157 
949 1 61.0569 46.7824 21.0882 
950 1 62.4843 48.2098 22.5157 
951 1 63.9118 46.7824 21.0882 
952 1 65.3393 48.2098 22.5157 
953 1 18.2333 49.6373 21.0882 
954 1 19.6607 51.0647 22.5157 
955 1 21.0882 49.6373 21.0882 
956 1 22.5157 51.0647 22.5157 
957 1 23.9431 49.6373 21.0882 
958 1 25.3706 51.0647 22.5157 
959 1 26.798 49.6373 21.0882 
960 1 28.2255 51.0647 22.5157 
961 1 29.6529 49.6373 21.0882 
962 1 31.0804 51.0647 22.5157 
963 1 32.5078 49.6373 21.0882 
964 1 33.9353 51.0647 22.5157 
965 1 35.3627 49.6373 21.0882 
966 1 36.7902 51.0647 22.5157 
967 1 38.2176 49.6373 21.0882 
968 1 39.6451 51.0647 22.5157 
969 1 41.0725 49.6373 21.0882 
970 1 42.5 51.0647 22.5157 
971 1 43.9275 49.6373 21.0882 
972 1 45.3549 51.0647 22.5157 
973 1 46.7824 49.6373 21.0882 