ITEM: TIMESTEP
4
ITEM: NUMBER OF ATOMS
19652
ITEM: BOX BOUNDS pp pp pp
8.2153148467821582e-02 8.4917846851532161e+01
1.4229342714801629e-01 1.4708202521620655e+02
1.3415552967284838e-01 1.3867026322804057e+02
ITEM: ATOMS id type xu yu zu 
1 2 0.0821531 0.142293 0.134156 
2 2 2.57732 4.46405 0.134156 
3 2 2.57732 7.34522 4.20875 
4 2 0.0821531 3.02346 4.20875 
5 2 5.07249 0.142293 0.134156 
6 2 7.56766 4.46405 0.134156 
7 2 7.56766 7.34522 4.20875 
8 2 5.07249 3.02346 4.20875 
9 2 10.0628 0.142293 0.134156 
10 2 12.558 4.46405 0.134156 
11 2 12.558 7.34522 4.20875 
12 2 10.0628 3.02346 4.20875 
13 2 15.0532 0.142293 0.134156 
14 2 17.5483 4.46405 0.134156 
15 2 17.5483 7.34522 4.20875 
16 2 15.0532 3.02346 4.20875 
17 2 20.0435 0.142293 0.134156 
18 2 22.5387 4.46405 0.134156 
19 2 22.5387 7.34522 4.20875 
20 2 20.0435 3.02346 4.20875 
21 2 25.0338 0.142293 0.134156 
22 2 27.529 4.46405 0.134156 
23 2 27.529 7.34522 4.20875 
24 2 25.0338 3.02346 4.20875 
25 2 30.0242 0.142293 0.134156 
26 2 32.5193 4.46405 0.134156 
27 2 32.5193 7.34522 4.20875 
28 2 30.0242 3.02346 4.20875 
29 2 35.0145 0.142293 0.134156 
30 2 37.5097 4.46405 0.134156 
31 2 37.5097 7.34522 4.20875 
32 2 35.0145 3.02346 4.20875 
33 2 40.0048 0.142293 0.134156 
34 2 42.5 4.46405 0.134156 
35 2 42.5 7.34522 4.20875 
36 2 40.0048 3.02346 4.20875 
37 2 44.9952 0.142293 0.134156 
38 2 47.4903 4.46405 0.134156 
39 2 47.4903 7.34522 4.20875 
40 2 44.9952 3.02346 4.20875 
41 2 49.9855 0.142293 0.134156 
42 2 52.4807 4.46405 0.134156 
43 2 52.4807 7.34522 4.20875 
44 2 49.9855 3.02346 4.20875 
45 2 54.9758 0.142293 0.134156 
46 2 57.471 4.46405 0.134156 
47 2 57.471 7.34522 4.20875 
48 2 54.9758 3.02346 4.20875 
49 2 59.9662 0.142293 0.134156 
50 2 62.4613 4.46405 0.134156 
51 2 62.4613 7.34522 4.20875 
52 2 59.9662 3.02346 4.20875 
53 2 64.9565 0.142293 0.134156 
54 2 67.4517 4.46405 0.134156 
55 2 67.4517 7.34522 4.20875 
56 2 64.9565 3.02346 4.20875 
57 2 69.9468 0.142293 0.134156 
58 2 72.442 4.46405 0.134156 
59 2 72.442 7.34522 4.20875 
60 2 69.9468 3.02346 4.20875 
61 2 74.9372 0.142293 0.134156 
62 2 77.4323 4.46405 0.134156 
63 2 77.4323 7.34522 4.20875 
64 2 74.9372 3.02346 4.20875 
65 2 79.9275 0.142293 0.134156 
66 2 82.4227 4.46405 0.134156 
67 2 82.4227 7.34522 4.20875 
68 2 79.9275 3.02346 4.20875 
69 2 0.0821531 8.78581 0.134156 
70 2 2.57732 13.1076 0.134156 
71 2 2.57732 15.9887 4.20875 
72 2 0.0821531 11.667 4.20875 
73 2 5.07249 8.78581 0.134156 
74 2 7.56766 13.1076 0.134156 
75 2 7.56766 15.9887 4.20875 
76 2 5.07249 11.667 4.20875 
77 2 10.0628 8.78581 0.134156 
78 2 12.558 13.1076 0.134156 
79 2 12.558 15.9887 4.20875 
80 2 10.0628 11.667 4.20875 
81 2 15.0532 8.78581 0.134156 
82 2 17.5483 13.1076 0.134156 
83 2 17.5483 15.9887 4.20875 
84 2 15.0532 11.667 4.20875 
85 2 20.0435 8.78581 0.134156 
86 2 22.5387 13.1076 0.134156 
87 2 22.5387 15.9887 4.20875 
88 2 20.0435 11.667 4.20875 
89 2 25.0338 8.78581 0.134156 
90 2 27.529 13.1076 0.134156 
91 2 27.529 15.9887 4.20875 
92 2 25.0338 11.667 4.20875 
93 2 30.0242 8.78581 0.134156 
94 2 32.5193 13.1076 0.134156 
95 2 32.5193 15.9887 4.20875 
96 2 30.0242 11.667 4.20875 
97 2 35.0145 8.78581 0.134156 
98 2 37.5097 13.1076 0.134156 
99 2 37.5097 15.9887 4.20875 
100 2 35.0145 11.667 4.20875 
101 2 40.0048 8.78581 0.134156 
102 2 42.5 13.1076 0.134156 
103 2 42.5 15.9887 4.20875 
104 2 40.0048 11.667 4.20875 
105 2 44.9952 8.78581 0.134156 
106 2 47.4903 13.1076 0.134156 
107 2 47.4903 15.9887 4.20875 
108 2 44.9952 11.667 4.20875 
109 2 49.9855 8.78581 0.134156 
110 2 52.4807 13.1076 0.134156 
111 2 52.4807 15.9887 4.20875 
112 2 49.9855 11.667 4.20875 
113 2 54.9758 8.78581 0.134156 
114 2 57.471 13.1076 0.134156 
115 2 57.471 15.9887 4.20875 
116 2 54.9758 11.667 4.20875 
117 2 59.9662 8.78581 0.134156 
118 2 62.4613 13.1076 0.134156 
119 2 62.4613 15.9887 4.20875 
120 2 59.9662 11.667 4.20875 
121 2 64.9565 8.78581 0.134156 
122 2 67.4517 13.1076 0.134156 
123 2 67.4517 15.9887 4.20875 
124 2 64.9565 11.667 4.20875 
125 2 69.9468 8.78581 0.134156 
126 2 72.442 13.1076 0.134156 
127 2 72.442 15.9887 4.20875 
128 2 69.9468 11.667 4.20875 
129 2 74.9372 8.78581 0.134156 
130 2 77.4323 13.1076 0.134156 
131 2 77.4323 15.9887 4.20875 
132 2 74.9372 11.667 4.20875 
133 2 79.9275 8.78581 0.134156 
134 2 82.4227 13.1076 0.134156 
135 2 82.4227 15.9887 4.20875 
136 2 79.9275 11.667 4.20875 
137 2 0.0821531 17.4293 0.134156 
138 2 2.57732 21.7511 0.134156 
139 2 2.57732 24.6322 4.20875 
140 2 0.0821531 20.3105 4.20875 
141 2 5.07249 17.4293 0.134156 
142 2 7.56766 21.7511 0.134156 
143 2 7.56766 24.6322 4.20875 
144 2 5.07249 20.3105 4.20875 
145 2 10.0628 17.4293 0.134156 
146 2 12.558 21.7511 0.134156 
147 2 12.558 24.6322 4.20875 
148 2 10.0628 20.3105 4.20875 
149 2 15.0532 17.4293 0.134156 
150 2 17.5483 21.7511 0.134156 
151 2 17.5483 24.6322 4.20875 
152 2 15.0532 20.3105 4.20875 
153 2 20.0435 17.4293 0.134156 
154 2 22.5387 21.7511 0.134156 
155 2 22.5387 24.6322 4.20875 
156 2 20.0435 20.3105 4.20875 
157 2 25.0338 17.4293 0.134156 
158 2 27.529 21.7511 0.134156 
159 2 27.529 24.6322 4.20875 
160 2 25.0338 20.3105 4.20875 
161 2 30.0242 17.4293 0.134156 
162 2 32.5193 21.7511 0.134156 
163 2 32.5193 24.6322 4.20875 
164 2 30.0242 20.3105 4.20875 
165 2 35.0145 17.4293 0.134156 
166 2 37.5097 21.7511 0.134156 
167 2 37.5097 24.6322 4.20875 
168 2 35.0145 20.3105 4.20875 
169 2 40.0048 17.4293 0.134156 
170 2 42.5 21.7511 0.134156 
171 2 42.5 24.6322 4.20875 
172 2 40.0048 20.3105 4.20875 
173 2 44.9952 17.4293 0.134156 
174 2 47.4903 21.7511 0.134156 
175 2 47.4903 24.6322 4.20875 
176 2 44.9952 20.3105 4.20875 
177 2 49.9855 17.4293 0.134156 
178 2 52.4807 21.7511 0.134156 
179 2 52.4807 24.6322 4.20875 
180 2 49.9855 20.3105 4.20875 
181 2 54.9758 17.4293 0.134156 
182 2 57.471 21.7511 0.134156 
183 2 57.471 24.6322 4.20875 
184 2 54.9758 20.3105 4.20875 
185 2 59.9662 17.4293 0.134156 
186 2 62.4613 21.7511 0.134156 
187 2 62.4613 24.6322 4.20875 
188 2 59.9662 20.3105 4.20875 
189 2 64.9565 17.4293 0.134156 
190 2 67.4517 21.7511 0.134156 
191 2 67.4517 24.6322 4.20875 
192 2 64.9565 20.3105 4.20875 
193 2 69.9468 17.4293 0.134156 
194 2 72.442 21.7511 0.134156 
195 2 72.442 24.6322 4.20875 
196 2 69.9468 20.3105 4.20875 
197 2 74.9372 17.4293 0.134156 
198 2 77.4323 21.7511 0.134156 
199 2 77.4323 24.6322 4.20875 
200 2 74.9372 20.3105 4.20875 
201 2 79.9275 17.4293 0.134156 
202 2 82.4227 21.7511 0.134156 
203 2 82.4227 24.6322 4.20875 
204 2 79.9275 20.3105 4.20875 
205 2 0.0821531 26.0728 0.134156 
206 2 2.57732 30.3946 0.134156 
207 2 2.57732 33.2758 4.20875 
208 2 0.0821531 28.954 4.20875 
209 2 5.07249 26.0728 0.134156 
210 2 7.56766 30.3946 0.134156 
211 2 7.56766 33.2758 4.20875 
212 2 5.07249 28.954 4.20875 
213 2 10.0628 26.0728 0.134156 
214 2 12.558 30.3946 0.134156 
215 2 12.558 33.2758 4.20875 
216 2 10.0628 28.954 4.20875 
217 2 15.0532 26.0728 0.134156 
218 2 17.5483 30.3946 0.134156 
219 2 17.5483 33.2758 4.20875 
220 2 15.0532 28.954 4.20875 
221 2 20.0435 26.0728 0.134156 
222 2 22.5387 30.3946 0.134156 
223 2 22.5387 33.2758 4.20875 
224 2 20.0435 28.954 4.20875 
225 2 25.0338 26.0728 0.134156 
226 2 27.529 30.3946 0.134156 
227 2 27.529 33.2758 4.20875 
228 2 25.0338 28.954 4.20875 
229 2 30.0242 26.0728 0.134156 
230 2 32.5193 30.3946 0.134156 
231 2 32.5193 33.2758 4.20875 
232 2 30.0242 28.954 4.20875 
233 2 35.0145 26.0728 0.134156 
234 2 37.5097 30.3946 0.134156 
235 2 37.5097 33.2758 4.20875 
236 2 35.0145 28.954 4.20875 
237 2 40.0048 26.0728 0.134156 
238 2 42.5 30.3946 0.134156 
239 2 42.5 33.2758 4.20875 
240 2 40.0048 28.954 4.20875 
241 2 44.9952 26.0728 0.134156 
242 2 47.4903 30.3946 0.134156 
243 2 47.4903 33.2758 4.20875 
244 2 44.9952 28.954 4.20875 
245 2 49.9855 26.0728 0.134156 
246 2 52.4807 30.3946 0.134156 
247 2 52.4807 33.2758 4.20875 
248 2 49.9855 28.954 4.20875 
249 2 54.9758 26.0728 0.134156 
250 2 57.471 30.3946 0.134156 
251 2 57.471 33.2758 4.20875 
252 2 54.9758 28.954 4.20875 
253 2 59.9662 26.0728 0.134156 
254 2 62.4613 30.3946 0.134156 
255 2 62.4613 33.2758 4.20875 
256 2 59.9662 28.954 4.20875 
257 2 64.9565 26.0728 0.134156 
258 2 67.4517 30.3946 0.134156 
259 2 67.4517 33.2758 4.20875 
260 2 64.9565 28.954 4.20875 
261 2 69.9468 26.0728 0.134156 
262 2 72.442 30.3946 0.134156 
263 2 72.442 33.2758 4.20875 
264 2 69.9468 28.954 4.20875 
265 2 74.9372 26.0728 0.134156 
266 2 77.4323 30.3946 0.134156 
267 2 77.4323 33.2758 4.20875 
268 2 74.9372 28.954 4.20875 
269 2 79.9275 26.0728 0.134156 
270 2 82.4227 30.3946 0.134156 
271 2 82.4227 33.2758 4.20875 
272 2 79.9275 28.954 4.20875 
273 2 0.0821531 34.7163 0.134156 
274 2 2.57732 39.0381 0.134156 
275 2 2.57732 41.9193 4.20875 
276 2 0.0821531 37.5975 4.20875 
277 2 5.07249 34.7163 0.134156 
278 2 7.56766 39.0381 0.134156 
279 2 7.56766 41.9193 4.20875 
280 2 5.07249 37.5975 4.20875 
281 2 10.0628 34.7163 0.134156 
282 2 12.558 39.0381 0.134156 
283 2 12.558 41.9193 4.20875 
284 2 10.0628 37.5975 4.20875 
285 2 15.0532 34.7163 0.134156 
286 2 17.5483 39.0381 0.134156 
287 2 17.5483 41.9193 4.20875 
288 2 15.0532 37.5975 4.20875 
289 2 20.0435 34.7163 0.134156 
290 2 22.5387 39.0381 0.134156 
291 2 22.5387 41.9193 4.20875 
292 2 20.0435 37.5975 4.20875 
293 2 25.0338 34.7163 0.134156 
294 2 27.529 39.0381 0.134156 
295 2 27.529 41.9193 4.20875 
296 2 25.0338 37.5975 4.20875 
297 2 30.0242 34.7163 0.134156 
298 2 32.5193 39.0381 0.134156 
299 2 32.5193 41.9193 4.20875 
300 2 30.0242 37.5975 4.20875 
301 2 35.0145 34.7163 0.134156 
302 2 37.5097 39.0381 0.134156 
303 2 37.5097 41.9193 4.20875 
304 2 35.0145 37.5975 4.20875 
305 2 40.0048 34.7163 0.134156 
306 2 42.5 39.0381 0.134156 
307 2 42.5 41.9193 4.20875 
308 2 40.0048 37.5975 4.20875 
309 2 44.9952 34.7163 0.134156 
310 2 47.4903 39.0381 0.134156 
311 2 47.4903 41.9193 4.20875 
312 2 44.9952 37.5975 4.20875 
313 2 49.9855 34.7163 0.134156 
314 2 52.4807 39.0381 0.134156 
315 2 52.4807 41.9193 4.20875 
316 2 49.9855 37.5975 4.20875 
317 2 54.9758 34.7163 0.134156 
318 2 57.471 39.0381 0.134156 
319 2 57.471 41.9193 4.20875 
320 2 54.9758 37.5975 4.20875 
321 2 59.9662 34.7163 0.134156 
322 2 62.4613 39.0381 0.134156 
323 2 62.4613 41.9193 4.20875 
324 2 59.9662 37.5975 4.20875 
325 2 64.9565 34.7163 0.134156 
326 2 67.4517 39.0381 0.134156 
327 2 67.4517 41.9193 4.20875 
328 2 64.9565 37.5975 4.20875 
329 2 69.9468 34.7163 0.134156 
330 2 72.442 39.0381 0.134156 
331 2 72.442 41.9193 4.20875 
332 2 69.9468 37.5975 4.20875 
333 2 74.9372 34.7163 0.134156 
334 2 77.4323 39.0381 0.134156 
335 2 77.4323 41.9193 4.20875 
336 2 74.9372 37.5975 4.20875 
337 2 79.9275 34.7163 0.134156 
338 2 82.4227 39.0381 0.134156 
339 2 82.4227 41.9193 4.20875 
340 2 79.9275 37.5975 4.20875 
341 2 0.0821531 43.3599 0.134156 
342 2 2.57732 47.6816 0.134156 
343 2 2.57732 50.5628 4.20875 
344 2 0.0821531 46.241 4.20875 
345 2 5.07249 43.3599 0.134156 
346 2 7.56766 47.6816 0.134156 
347 2 7.56766 50.5628 4.20875 
348 2 5.07249 46.241 4.20875 
349 2 10.0628 43.3599 0.134156 
350 2 12.558 47.6816 0.134156 
351 2 12.558 50.5628 4.20875 
352 2 10.0628 46.241 4.20875 
353 2 15.0532 43.3599 0.134156 
354 2 17.5483 47.6816 0.134156 
355 2 17.5483 50.5628 4.20875 
356 2 15.0532 46.241 4.20875 
357 2 20.0435 43.3599 0.134156 
358 2 22.5387 47.6816 0.134156 
359 2 22.5387 50.5628 4.20875 
360 2 20.0435 46.241 4.20875 
361 2 25.0338 43.3599 0.134156 
362 2 27.529 47.6816 0.134156 
363 2 27.529 50.5628 4.20875 
364 2 25.0338 46.241 4.20875 
365 2 30.0242 43.3599 0.134156 
366 2 32.5193 47.6816 0.134156 
367 2 32.5193 50.5628 4.20875 
368 2 30.0242 46.241 4.20875 
369 2 35.0145 43.3599 0.134156 
370 2 37.5097 47.6816 0.134156 
371 2 37.5097 50.5628 4.20875 
372 2 35.0145 46.241 4.20875 
373 2 40.0048 43.3599 0.134156 
374 2 42.5 47.6816 0.134156 
375 2 42.5 50.5628 4.20875 
376 2 40.0048 46.241 4.20875 
377 2 44.9952 43.3599 0.134156 
378 2 47.4903 47.6816 0.134156 
379 2 47.4903 50.5628 4.20875 
380 2 44.9952 46.241 4.20875 
381 2 49.9855 43.3599 0.134156 
382 2 52.4807 47.6816 0.134156 
383 2 52.4807 50.5628 4.20875 
384 2 49.9855 46.241 4.20875 
385 2 54.9758 43.3599 0.134156 
386 2 57.471 47.6816 0.134156 
387 2 57.471 50.5628 4.20875 
388 2 54.9758 46.241 4.20875 
389 2 59.9662 43.3599 0.134156 
390 2 62.4613 47.6816 0.134156 
391 2 62.4613 50.5628 4.20875 
392 2 59.9662 46.241 4.20875 
393 2 64.9565 43.3599 0.134156 
394 2 67.4517 47.6816 0.134156 
395 2 67.4517 50.5628 4.20875 
396 2 64.9565 46.241 4.20875 
397 2 69.9468 43.3599 0.134156 
398 2 72.442 47.6816 0.134156 
399 2 72.442 50.5628 4.20875 
400 2 69.9468 46.241 4.20875 
401 2 74.9372 43.3599 0.134156 
402 2 77.4323 47.6816 0.134156 
403 2 77.4323 50.5628 4.20875 
404 2 74.9372 46.241 4.20875 
405 2 79.9275 43.3599 0.134156 
406 2 82.4227 47.6816 0.134156 
407 2 82.4227 50.5628 4.20875 
408 2 79.9275 46.241 4.20875 
409 2 0.0821531 52.0034 0.134156 
410 2 2.57732 56.3251 0.134156 
411 2 2.57732 59.2063 4.20875 
412 2 0.0821531 54.8845 4.20875 
413 2 5.07249 52.0034 0.134156 
414 2 7.56766 56.3251 0.134156 
415 2 7.56766 59.2063 4.20875 
416 2 5.07249 54.8845 4.20875 
417 2 10.0628 52.0034 0.134156 
418 2 12.558 56.3251 0.134156 
419 2 12.558 59.2063 4.20875 
420 2 10.0628 54.8845 4.20875 
421 2 15.0532 52.0034 0.134156 
422 2 17.5483 56.3251 0.134156 
423 2 17.5483 59.2063 4.20875 
424 2 15.0532 54.8845 4.20875 
425 2 20.0435 52.0034 0.134156 
426 2 22.5387 56.3251 0.134156 
427 2 22.5387 59.2063 4.20875 
428 2 20.0435 54.8845 4.20875 
429 2 25.0338 52.0034 0.134156 
430 2 27.529 56.3251 0.134156 
431 2 27.529 59.2063 4.20875 
432 2 25.0338 54.8845 4.20875 
433 2 30.0242 52.0034 0.134156 
434 2 32.5193 56.3251 0.134156 
435 2 32.5193 59.2063 4.20875 
436 2 30.0242 54.8845 4.20875 
437 2 35.0145 52.0034 0.134156 
438 2 37.5097 56.3251 0.134156 
439 2 37.5097 59.2063 4.20875 
440 2 35.0145 54.8845 4.20875 
441 2 40.0048 52.0034 0.134156 
442 2 42.5 56.3251 0.134156 
443 2 42.5 59.2063 4.20875 
444 2 40.0048 54.8845 4.20875 
445 2 44.9952 52.0034 0.134156 
446 2 47.4903 56.3251 0.134156 
447 2 47.4903 59.2063 4.20875 
448 2 44.9952 54.8845 4.20875 
449 2 49.9855 52.0034 0.134156 
450 2 52.4807 56.3251 0.134156 
451 2 52.4807 59.2063 4.20875 
452 2 49.9855 54.8845 4.20875 
453 2 54.9758 52.0034 0.134156 
454 2 57.471 56.3251 0.134156 
455 2 57.471 59.2063 4.20875 
456 2 54.9758 54.8845 4.20875 
457 2 59.9662 52.0034 0.134156 
458 2 62.4613 56.3251 0.134156 
459 2 62.4613 59.2063 4.20875 
460 2 59.9662 54.8845 4.20875 
461 2 64.9565 52.0034 0.134156 
462 2 67.4517 56.3251 0.134156 
463 2 67.4517 59.2063 4.20875 
464 2 64.9565 54.8845 4.20875 
465 2 69.9468 52.0034 0.134156 
466 2 72.442 56.3251 0.134156 
467 2 72.442 59.2063 4.20875 
468 2 69.9468 54.8845 4.20875 
469 2 74.9372 52.0034 0.134156 
470 2 77.4323 56.3251 0.134156 
471 2 77.4323 59.2063 4.20875 
472 2 74.9372 54.8845 4.20875 
473 2 79.9275 52.0034 0.134156 
474 2 82.4227 56.3251 0.134156 
475 2 82.4227 59.2063 4.20875 
476 2 79.9275 54.8845 4.20875 
477 2 0.0821531 60.6469 0.134156 
478 2 2.57732 64.9686 0.134156 
479 2 2.57732 67.8498 4.20875 
480 2 0.0821531 63.5281 4.20875 
481 2 5.07249 60.6469 0.134156 
482 2 7.56766 64.9686 0.134156 
483 2 7.56766 67.8498 4.20875 
484 2 5.07249 63.5281 4.20875 
485 2 10.0628 60.6469 0.134156 
486 2 12.558 64.9686 0.134156 
487 2 12.558 67.8498 4.20875 
488 2 10.0628 63.5281 4.20875 
489 2 15.0532 60.6469 0.134156 
490 2 17.5483 64.9686 0.134156 
491 2 17.5483 67.8498 4.20875 
492 2 15.0532 63.5281 4.20875 
493 2 20.0435 60.6469 0.134156 
494 2 22.5387 64.9686 0.134156 
495 2 22.5387 67.8498 4.20875 
496 2 20.0435 63.5281 4.20875 
497 2 25.0338 60.6469 0.134156 
498 2 27.529 64.9686 0.134156 
499 2 27.529 67.8498 4.20875 
500 2 25.0338 63.5281 4.20875 
501 2 30.0242 60.6469 0.134156 
502 2 32.5193 64.9686 0.134156 
503 2 32.5193 67.8498 4.20875 
504 2 30.0242 63.5281 4.20875 
505 2 35.0145 60.6469 0.134156 
506 2 37.5097 64.9686 0.134156 
507 2 37.5097 67.8498 4.20875 
508 2 35.0145 63.5281 4.20875 
509 2 40.0048 60.6469 0.134156 
510 2 42.5 64.9686 0.134156 
511 2 42.5 67.8498 4.20875 
512 2 40.0048 63.5281 4.20875 
513 2 44.9952 60.6469 0.134156 
514 2 47.4903 64.9686 0.134156 
515 2 47.4903 67.8498 4.20875 
516 2 44.9952 63.5281 4.20875 
517 2 49.9855 60.6469 0.134156 
518 2 52.4807 64.9686 0.134156 
519 2 52.4807 67.8498 4.20875 
520 2 49.9855 63.5281 4.20875 
521 2 54.9758 60.6469 0.134156 
522 2 57.471 64.9686 0.134156 
523 2 57.471 67.8498 4.20875 
524 2 54.9758 63.5281 4.20875 
525 2 59.9662 60.6469 0.134156 
526 2 62.4613 64.9686 0.134156 
527 2 62.4613 67.8498 4.20875 
528 2 59.9662 63.5281 4.20875 
529 2 64.9565 60.6469 0.134156 
530 2 67.4517 64.9686 0.134156 
531 2 67.4517 67.8498 4.20875 
532 2 64.9565 63.5281 4.20875 
533 2 69.9468 60.6469 0.134156 
534 2 72.442 64.9686 0.134156 
535 2 72.442 67.8498 4.20875 
536 2 69.9468 63.5281 4.20875 
537 2 74.9372 60.6469 0.134156 
538 2 77.4323 64.9686 0.134156 
539 2 77.4323 67.8498 4.20875 
540 2 74.9372 63.5281 4.20875 
541 2 79.9275 60.6469 0.134156 
542 2 82.4227 64.9686 0.134156 
543 2 82.4227 67.8498 4.20875 
544 2 79.9275 63.5281 4.20875 
545 2 0.0821531 69.2904 0.134156 
546 2 2.57732 73.6122 0.134156 
547 2 2.57732 76.4933 4.20875 
548 2 0.0821531 72.1716 4.20875 
549 2 5.07249 69.2904 0.134156 
550 2 7.56766 73.6122 0.134156 
551 2 7.56766 76.4933 4.20875 
552 2 5.07249 72.1716 4.20875 
553 2 10.0628 69.2904 0.134156 
554 2 12.558 73.6122 0.134156 
555 2 12.558 76.4933 4.20875 
556 2 10.0628 72.1716 4.20875 
557 2 15.0532 69.2904 0.134156 
558 2 17.5483 73.6122 0.134156 
559 2 17.5483 76.4933 4.20875 
560 2 15.0532 72.1716 4.20875 
561 2 20.0435 69.2904 0.134156 
562 2 22.5387 73.6122 0.134156 
563 2 22.5387 76.4933 4.20875 
564 2 20.0435 72.1716 4.20875 
565 2 25.0338 69.2904 0.134156 
566 2 27.529 73.6122 0.134156 
567 2 27.529 76.4933 4.20875 
568 2 25.0338 72.1716 4.20875 
569 2 30.0242 69.2904 0.134156 
570 2 32.5193 73.6122 0.134156 
571 2 32.5193 76.4933 4.20875 
572 2 30.0242 72.1716 4.20875 
573 2 35.0145 69.2904 0.134156 
574 2 37.5097 73.6122 0.134156 
575 2 37.5097 76.4933 4.20875 
576 2 35.0145 72.1716 4.20875 
577 2 40.0048 69.2904 0.134156 
578 2 42.5 73.6122 0.134156 
579 2 42.5 76.4933 4.20875 
580 2 40.0048 72.1716 4.20875 
581 2 44.9952 69.2904 0.134156 
582 2 47.4903 73.6122 0.134156 
583 2 47.4903 76.4933 4.20875 
584 2 44.9952 72.1716 4.20875 
585 2 49.9855 69.2904 0.134156 
586 2 52.4807 73.6122 0.134156 
587 2 52.4807 76.4933 4.20875 
588 2 49.9855 72.1716 4.20875 
589 2 54.9758 69.2904 0.134156 
590 2 57.471 73.6122 0.134156 
591 2 57.471 76.4933 4.20875 
592 2 54.9758 72.1716 4.20875 
593 2 59.9662 69.2904 0.134156 
594 2 62.4613 73.6122 0.134156 
595 2 62.4613 76.4933 4.20875 
596 2 59.9662 72.1716 4.20875 
597 2 64.9565 69.2904 0.134156 
598 2 67.4517 73.6122 0.134156 
599 2 67.4517 76.4933 4.20875 
600 2 64.9565 72.1716 4.20875 
601 2 69.9468 69.2904 0.134156 
602 2 72.442 73.6122 0.134156 
603 2 72.442 76.4933 4.20875 
604 2 69.9468 72.1716 4.20875 
605 2 74.9372 69.2904 0.134156 
606 2 77.4323 73.6122 0.134156 
607 2 77.4323 76.4933 4.20875 
608 2 74.9372 72.1716 4.20875 
609 2 79.9275 69.2904 0.134156 
610 2 82.4227 73.6122 0.134156 
611 2 82.4227 76.4933 4.20875 
612 2 79.9275 72.1716 4.20875 
613 2 0.0821531 77.9339 0.134156 
614 2 2.57732 82.2557 0.134156 
615 2 2.57732 85.1368 4.20875 
616 2 0.0821531 80.8151 4.20875 
617 2 5.07249 77.9339 0.134156 
618 2 7.56766 82.2557 0.134156 
619 2 7.56766 85.1368 4.20875 
620 2 5.07249 80.8151 4.20875 
621 2 10.0628 77.9339 0.134156 
622 2 12.558 82.2557 0.134156 
623 2 12.558 85.1368 4.20875 
624 2 10.0628 80.8151 4.20875 
625 2 15.0532 77.9339 0.134156 
626 2 17.5483 82.2557 0.134156 
627 2 17.5483 85.1368 4.20875 
628 2 15.0532 80.8151 4.20875 
629 2 20.0435 77.9339 0.134156 
630 2 22.5387 82.2557 0.134156 
631 2 22.5387 85.1368 4.20875 
632 2 20.0435 80.8151 4.20875 
633 2 25.0338 77.9339 0.134156 
634 2 27.529 82.2557 0.134156 
635 2 27.529 85.1368 4.20875 
636 2 25.0338 80.8151 4.20875 
637 2 30.0242 77.9339 0.134156 
638 2 32.5193 82.2557 0.134156 
639 2 32.5193 85.1368 4.20875 
640 2 30.0242 80.8151 4.20875 
641 2 35.0145 77.9339 0.134156 
642 2 37.5097 82.2557 0.134156 
643 2 37.5097 85.1368 4.20875 
644 2 35.0145 80.8151 4.20875 
645 2 40.0048 77.9339 0.134156 
646 2 42.5 82.2557 0.134156 
647 2 42.5 85.1368 4.20875 
648 2 40.0048 80.8151 4.20875 
649 2 44.9952 77.9339 0.134156 
650 2 47.4903 82.2557 0.134156 
651 2 47.4903 85.1368 4.20875 
652 2 44.9952 80.8151 4.20875 
653 2 49.9855 77.9339 0.134156 
654 2 52.4807 82.2557 0.134156 
655 2 52.4807 85.1368 4.20875 
656 2 49.9855 80.8151 4.20875 
657 2 54.9758 77.9339 0.134156 
658 2 57.471 82.2557 0.134156 
659 2 57.471 85.1368 4.20875 
660 2 54.9758 80.8151 4.20875 
661 2 59.9662 77.9339 0.134156 
662 2 62.4613 82.2557 0.134156 
663 2 62.4613 85.1368 4.20875 
664 2 59.9662 80.8151 4.20875 
665 2 64.9565 77.9339 0.134156 
666 2 67.4517 82.2557 0.134156 
667 2 67.4517 85.1368 4.20875 
668 2 64.9565 80.8151 4.20875 
669 2 69.9468 77.9339 0.134156 
670 2 72.442 82.2557 0.134156 
671 2 72.442 85.1368 4.20875 
672 2 69.9468 80.8151 4.20875 
673 2 74.9372 77.9339 0.134156 
674 2 77.4323 82.2557 0.134156 
675 2 77.4323 85.1368 4.20875 
676 2 74.9372 80.8151 4.20875 
677 2 79.9275 77.9339 0.134156 
678 2 82.4227 82.2557 0.134156 
679 2 82.4227 85.1368 4.20875 
680 2 79.9275 80.8151 4.20875 
681 2 0.0821531 86.5774 0.134156 
682 2 2.57732 90.8992 0.134156 
683 2 2.57732 93.7804 4.20875 
684 2 0.0821531 89.4586 4.20875 
685 2 5.07249 86.5774 0.134156 
686 2 7.56766 90.8992 0.134156 
687 2 7.56766 93.7804 4.20875 
688 2 5.07249 89.4586 4.20875 
689 2 10.0628 86.5774 0.134156 
690 2 12.558 90.8992 0.134156 
691 2 12.558 93.7804 4.20875 
692 2 10.0628 89.4586 4.20875 
693 2 15.0532 86.5774 0.134156 
694 2 17.5483 90.8992 0.134156 
695 2 17.5483 93.7804 4.20875 
696 2 15.0532 89.4586 4.20875 
697 2 20.0435 86.5774 0.134156 
698 2 22.5387 90.8992 0.134156 
699 2 22.5387 93.7804 4.20875 
700 2 20.0435 89.4586 4.20875 
701 2 25.0338 86.5774 0.134156 
702 2 27.529 90.8992 0.134156 
703 2 27.529 93.7804 4.20875 
704 2 25.0338 89.4586 4.20875 
705 2 30.0242 86.5774 0.134156 
706 2 32.5193 90.8992 0.134156 
707 2 32.5193 93.7804 4.20875 
708 2 30.0242 89.4586 4.20875 
709 2 35.0145 86.5774 0.134156 
710 2 37.5097 90.8992 0.134156 
711 2 37.5097 93.7804 4.20875 
712 2 35.0145 89.4586 4.20875 
713 2 40.0048 86.5774 0.134156 
714 2 42.5 90.8992 0.134156 
715 2 42.5 93.7804 4.20875 
716 2 40.0048 89.4586 4.20875 
717 2 44.9952 86.5774 0.134156 
718 2 47.4903 90.8992 0.134156 
719 2 47.4903 93.7804 4.20875 
720 2 44.9952 89.4586 4.20875 
721 2 49.9855 86.5774 0.134156 
722 2 52.4807 90.8992 0.134156 
723 2 52.4807 93.7804 4.20875 
724 2 49.9855 89.4586 4.20875 
725 2 54.9758 86.5774 0.134156 
726 2 57.471 90.8992 0.134156 
727 2 57.471 93.7804 4.20875 
728 2 54.9758 89.4586 4.20875 
729 2 59.9662 86.5774 0.134156 
730 2 62.4613 90.8992 0.134156 
731 2 62.4613 93.7804 4.20875 
732 2 59.9662 89.4586 4.20875 
733 2 64.9565 86.5774 0.134156 
734 2 67.4517 90.8992 0.134156 
735 2 67.4517 93.7804 4.20875 
736 2 64.9565 89.4586 4.20875 
737 2 69.9468 86.5774 0.134156 
738 2 72.442 90.8992 0.134156 
739 2 72.442 93.7804 4.20875 
740 2 69.9468 89.4586 4.20875 
741 2 74.9372 86.5774 0.134156 
742 2 77.4323 90.8992 0.134156 
743 2 77.4323 93.7804 4.20875 
744 2 74.9372 89.4586 4.20875 
745 2 79.9275 86.5774 0.134156 
746 2 82.4227 90.8992 0.134156 
747 2 82.4227 93.7804 4.20875 
748 2 79.9275 89.4586 4.20875 
749 2 0.0821531 95.2209 0.134156 
750 2 2.57732 99.5427 0.134156 
751 2 2.57732 102.424 4.20875 
752 2 0.0821531 98.1021 4.20875 
753 2 5.07249 95.2209 0.134156 
754 2 7.56766 99.5427 0.134156 
755 2 7.56766 102.424 4.20875 
756 2 5.07249 98.1021 4.20875 
757 2 10.0628 95.2209 0.134156 
758 2 12.558 99.5427 0.134156 
759 2 12.558 102.424 4.20875 
760 2 10.0628 98.1021 4.20875 
761 2 15.0532 95.2209 0.134156 
762 2 17.5483 99.5427 0.134156 
763 2 17.5483 102.424 4.20875 
764 2 15.0532 98.1021 4.20875 
765 2 20.0435 95.2209 0.134156 
766 2 22.5387 99.5427 0.134156 
767 2 22.5387 102.424 4.20875 
768 2 20.0435 98.1021 4.20875 
769 2 25.0338 95.2209 0.134156 
770 2 27.529 99.5427 0.134156 
771 2 27.529 102.424 4.20875 
772 2 25.0338 98.1021 4.20875 
773 2 30.0242 95.2209 0.134156 
774 2 32.5193 99.5427 0.134156 
775 2 32.5193 102.424 4.20875 
776 2 30.0242 98.1021 4.20875 
777 2 35.0145 95.2209 0.134156 
778 2 37.5097 99.5427 0.134156 
779 2 37.5097 102.424 4.20875 
780 2 35.0145 98.1021 4.20875 
781 2 40.0048 95.2209 0.134156 
782 2 42.5 99.5427 0.134156 
783 2 42.5 102.424 4.20875 
784 2 40.0048 98.1021 4.20875 
785 2 44.9952 95.2209 0.134156 
786 2 47.4903 99.5427 0.134156 
787 2 47.4903 102.424 4.20875 
788 2 44.9952 98.1021 4.20875 
789 2 49.9855 95.2209 0.134156 
790 2 52.4807 99.5427 0.134156 
791 2 52.4807 102.424 4.20875 
792 2 49.9855 98.1021 4.20875 
793 2 54.9758 95.2209 0.134156 
794 2 57.471 99.5427 0.134156 
795 2 57.471 102.424 4.20875 
796 2 54.9758 98.1021 4.20875 
797 2 59.9662 95.2209 0.134156 
798 2 62.4613 99.5427 0.134156 
799 2 62.4613 102.424 4.20875 
800 2 59.9662 98.1021 4.20875 
801 2 64.9565 95.2209 0.134156 
802 2 67.4517 99.5427 0.134156 
803 2 67.4517 102.424 4.20875 
804 2 64.9565 98.1021 4.20875 
805 2 69.9468 95.2209 0.134156 
806 2 72.442 99.5427 0.134156 
807 2 72.442 102.424 4.20875 
808 2 69.9468 98.1021 4.20875 
809 2 74.9372 95.2209 0.134156 
810 2 77.4323 99.5427 0.134156 
811 2 77.4323 102.424 4.20875 
812 2 74.9372 98.1021 4.20875 
813 2 79.9275 95.2209 0.134156 
814 2 82.4227 99.5427 0.134156 
815 2 82.4227 102.424 4.20875 
816 2 79.9275 98.1021 4.20875 
817 2 0.0821531 103.864 0.134156 
818 2 2.57732 108.186 0.134156 
819 2 2.57732 111.067 4.20875 
820 2 0.0821531 106.746 4.20875 
821 2 5.07249 103.864 0.134156 
822 2 7.56766 108.186 0.134156 
823 2 7.56766 111.067 4.20875 
824 2 5.07249 106.746 4.20875 
825 2 10.0628 103.864 0.134156 
826 2 12.558 108.186 0.134156 
827 2 12.558 111.067 4.20875 
828 2 10.0628 106.746 4.20875 
829 2 15.0532 103.864 0.134156 
830 2 17.5483 108.186 0.134156 
831 2 17.5483 111.067 4.20875 
832 2 15.0532 106.746 4.20875 
833 2 20.0435 103.864 0.134156 
834 2 22.5387 108.186 0.134156 
835 2 22.5387 111.067 4.20875 
836 2 20.0435 106.746 4.20875 
837 2 25.0338 103.864 0.134156 
838 2 27.529 108.186 0.134156 
839 2 27.529 111.067 4.20875 
840 2 25.0338 106.746 4.20875 
841 2 30.0242 103.864 0.134156 
842 2 32.5193 108.186 0.134156 
843 2 32.5193 111.067 4.20875 
844 2 30.0242 106.746 4.20875 
845 2 35.0145 103.864 0.134156 
846 2 37.5097 108.186 0.134156 
847 2 37.5097 111.067 4.20875 
848 2 35.0145 106.746 4.20875 
849 2 40.0048 103.864 0.134156 
850 2 42.5 108.186 0.134156 
851 2 42.5 111.067 4.20875 
852 2 40.0048 106.746 4.20875 
853 2 44.9952 103.864 0.134156 
854 2 47.4903 108.186 0.134156 
855 2 47.4903 111.067 4.20875 
856 2 44.9952 106.746 4.20875 
857 2 49.9855 103.864 0.134156 
858 2 52.4807 108.186 0.134156 
859 2 52.4807 111.067 4.20875 
860 2 49.9855 106.746 4.20875 
861 2 54.9758 103.864 0.134156 
862 2 57.471 108.186 0.134156 
863 2 57.471 111.067 4.20875 
864 2 54.9758 106.746 4.20875 
865 2 59.9662 103.864 0.134156 
866 2 62.4613 108.186 0.134156 
867 2 62.4613 111.067 4.20875 
868 2 59.9662 106.746 4.20875 
869 2 64.9565 103.864 0.134156 
870 2 67.4517 108.186 0.134156 
871 2 67.4517 111.067 4.20875 
872 2 64.9565 106.746 4.20875 
873 2 69.9468 103.864 0.134156 
874 2 72.442 108.186 0.134156 
875 2 72.442 111.067 4.20875 
876 2 69.9468 106.746 4.20875 
877 2 74.9372 103.864 0.134156 
878 2 77.4323 108.186 0.134156 
879 2 77.4323 111.067 4.20875 
880 2 74.9372 106.746 4.20875 
881 2 79.9275 103.864 0.134156 
882 2 82.4227 108.186 0.134156 
883 2 82.4227 111.067 4.20875 
884 2 79.9275 106.746 4.20875 
885 2 0.0821531 112.508 0.134156 
886 2 2.57732 116.83 0.134156 
887 2 2.57732 119.711 4.20875 
888 2 0.0821531 115.389 4.20875 
889 2 5.07249 112.508 0.134156 
890 2 7.56766 116.83 0.134156 
891 2 7.56766 119.711 4.20875 
892 2 5.07249 115.389 4.20875 
893 2 10.0628 112.508 0.134156 
894 2 12.558 116.83 0.134156 
895 2 12.558 119.711 4.20875 
896 2 10.0628 115.389 4.20875 
897 2 15.0532 112.508 0.134156 
898 2 17.5483 116.83 0.134156 
899 2 17.5483 119.711 4.20875 
900 2 15.0532 115.389 4.20875 
901 2 20.0435 112.508 0.134156 
902 2 22.5387 116.83 0.134156 
903 2 22.5387 119.711 4.20875 
904 2 20.0435 115.389 4.20875 
905 2 25.0338 112.508 0.134156 
906 2 27.529 116.83 0.134156 
907 2 27.529 119.711 4.20875 
908 2 25.0338 115.389 4.20875 
909 2 30.0242 112.508 0.134156 
910 2 32.5193 116.83 0.134156 
911 2 32.5193 119.711 4.20875 
912 2 30.0242 115.389 4.20875 
913 2 35.0145 112.508 0.134156 
914 2 37.5097 116.83 0.134156 
915 2 37.5097 119.711 4.20875 
916 2 35.0145 115.389 4.20875 
917 2 40.0048 112.508 0.134156 
918 2 42.5 116.83 0.134156 
919 2 42.5 119.711 4.20875 
920 2 40.0048 115.389 4.20875 
921 2 44.9952 112.508 0.134156 
922 2 47.4903 116.83 0.134156 
923 2 47.4903 119.711 4.20875 
924 2 44.9952 115.389 4.20875 
925 2 49.9855 112.508 0.134156 
926 2 52.4807 116.83 0.134156 
927 2 52.4807 119.711 4.20875 
928 2 49.9855 115.389 4.20875 
929 2 54.9758 112.508 0.134156 
930 2 57.471 116.83 0.134156 
931 2 57.471 119.711 4.20875 
932 2 54.9758 115.389 4.20875 
933 2 59.9662 112.508 0.134156 
934 2 62.4613 116.83 0.134156 
935 2 62.4613 119.711 4.20875 
936 2 59.9662 115.389 4.20875 
937 2 64.9565 112.508 0.134156 
938 2 67.4517 116.83 0.134156 
939 2 67.4517 119.711 4.20875 
940 2 64.9565 115.389 4.20875 
941 2 69.9468 112.508 0.134156 
942 2 72.442 116.83 0.134156 
943 2 72.442 119.711 4.20875 
944 2 69.9468 115.389 4.20875 
945 2 74.9372 112.508 0.134156 
946 2 77.4323 116.83 0.134156 
947 2 77.4323 119.711 4.20875 
948 2 74.9372 115.389 4.20875 
949 2 79.9275 112.508 0.134156 
950 2 82.4227 116.83 0.134156 
951 2 82.4227 119.711 4.20875 
952 2 79.9275 115.389 4.20875 
953 2 0.0821531 121.151 0.134156 
954 2 2.57732 125.473 0.134156 