ITEM: TIMESTEP
46
ITEM: NUMBER OF ATOMS
19652
ITEM: BOX BOUNDS pp pp pp
9.2295743122877223e+00 7.5770425687712049e+01
9.2295743122877223e+00 7.5770425687712049e+01
9.2295743122877223e+00 7.5770425687712049e+01
ITEM: ATOMS id type xu yu zu 
1 1 9.22957 9.22957 9.22957 
2 1 11.1867 11.1867 9.22957 
3 1 11.1867 9.22957 11.1867 
4 1 9.22957 11.1867 11.1867 
5 1 13.1437 9.22957 9.22957 
6 1 15.1008 11.1867 9.22957 
7 1 15.1008 9.22957 11.1867 
8 1 13.1437 11.1867 11.1867 
9 1 17.0579 9.22957 9.22957 
10 1 19.015 11.1867 9.22957 
11 1 19.015 9.22957 11.1867 
12 1 17.0579 11.1867 11.1867 
13 1 20.9721 9.22957 9.22957 
14 1 22.9292 11.1867 9.22957 
15 1 22.9292 9.22957 11.1867 
16 1 20.9721 11.1867 11.1867 
17 1 24.8862 9.22957 9.22957 
18 1 26.8433 11.1867 9.22957 
19 1 26.8433 9.22957 11.1867 
20 1 24.8862 11.1867 11.1867 
21 1 28.8004 9.22957 9.22957 
22 1 30.7575 11.1867 9.22957 
23 1 30.7575 9.22957 11.1867 
24 1 28.8004 11.1867 11.1867 
25 1 32.7146 9.22957 9.22957 
26 1 34.6717 11.1867 9.22957 
27 1 34.6717 9.22957 11.1867 
28 1 32.7146 11.1867 11.1867 
29 1 36.6287 9.22957 9.22957 
30 1 38.5858 11.1867 9.22957 
31 1 38.5858 9.22957 11.1867 
32 1 36.6287 11.1867 11.1867 
33 1 40.5429 9.22957 9.22957 
34 1 42.5 11.1867 9.22957 
35 1 42.5 9.22957 11.1867 
36 1 40.5429 11.1867 11.1867 
37 1 44.4571 9.22957 9.22957 
38 1 46.4142 11.1867 9.22957 
39 1 46.4142 9.22957 11.1867 
40 1 44.4571 11.1867 11.1867 
41 1 48.3713 9.22957 9.22957 
42 1 50.3283 11.1867 9.22957 
43 1 50.3283 9.22957 11.1867 
44 1 48.3713 11.1867 11.1867 
45 1 52.2854 9.22957 9.22957 
46 1 54.2425 11.1867 9.22957 
47 1 54.2425 9.22957 11.1867 
48 1 52.2854 11.1867 11.1867 
49 1 56.1996 9.22957 9.22957 
50 1 58.1567 11.1867 9.22957 
51 1 58.1567 9.22957 11.1867 
52 1 56.1996 11.1867 11.1867 
53 1 60.1138 9.22957 9.22957 
54 1 62.0708 11.1867 9.22957 
55 1 62.0708 9.22957 11.1867 
56 1 60.1138 11.1867 11.1867 
57 1 64.0279 9.22957 9.22957 
58 1 65.985 11.1867 9.22957 
59 1 65.985 9.22957 11.1867 
60 1 64.0279 11.1867 11.1867 
61 1 67.9421 9.22957 9.22957 
62 1 69.8992 11.1867 9.22957 
63 1 69.8992 9.22957 11.1867 
64 1 67.9421 11.1867 11.1867 
65 1 71.8563 9.22957 9.22957 
66 1 73.8133 11.1867 9.22957 
67 1 73.8133 9.22957 11.1867 
68 1 71.8563 11.1867 11.1867 
69 1 9.22957 13.1437 9.22957 
70 1 11.1867 15.1008 9.22957 
71 1 11.1867 13.1437 11.1867 
72 1 9.22957 15.1008 11.1867 
73 1 13.1437 13.1437 9.22957 
74 1 15.1008 15.1008 9.22957 
75 1 15.1008 13.1437 11.1867 
76 1 13.1437 15.1008 11.1867 
77 1 17.0579 13.1437 9.22957 
78 1 19.015 15.1008 9.22957 
79 1 19.015 13.1437 11.1867 
80 1 17.0579 15.1008 11.1867 
81 1 20.9721 13.1437 9.22957 
82 1 22.9292 15.1008 9.22957 
83 1 22.9292 13.1437 11.1867 
84 1 20.9721 15.1008 11.1867 
85 1 24.8862 13.1437 9.22957 
86 1 26.8433 15.1008 9.22957 
87 1 26.8433 13.1437 11.1867 
88 1 24.8862 15.1008 11.1867 
89 1 28.8004 13.1437 9.22957 
90 1 30.7575 15.1008 9.22957 
91 1 30.7575 13.1437 11.1867 
92 1 28.8004 15.1008 11.1867 
93 1 32.7146 13.1437 9.22957 
94 1 34.6717 15.1008 9.22957 
95 1 34.6717 13.1437 11.1867 
96 1 32.7146 15.1008 11.1867 
97 1 36.6287 13.1437 9.22957 
98 1 38.5858 15.1008 9.22957 
99 1 38.5858 13.1437 11.1867 
100 1 36.6287 15.1008 11.1867 
101 1 40.5429 13.1437 9.22957 
102 1 42.5 15.1008 9.22957 
103 1 42.5 13.1437 11.1867 
104 1 40.5429 15.1008 11.1867 
105 1 44.4571 13.1437 9.22957 
106 1 46.4142 15.1008 9.22957 
107 1 46.4142 13.1437 11.1867 
108 1 44.4571 15.1008 11.1867 
109 1 48.3713 13.1437 9.22957 
110 1 50.3283 15.1008 9.22957 
111 1 50.3283 13.1437 11.1867 
112 1 48.3713 15.1008 11.1867 
113 1 52.2854 13.1437 9.22957 
114 1 54.2425 15.1008 9.22957 
115 1 54.2425 13.1437 11.1867 
116 1 52.2854 15.1008 11.1867 
117 1 56.1996 13.1437 9.22957 
118 1 58.1567 15.1008 9.22957 
119 1 58.1567 13.1437 11.1867 
120 1 56.1996 15.1008 11.1867 
121 1 60.1138 13.1437 9.22957 
122 1 62.0708 15.1008 9.22957 
123 1 62.0708 13.1437 11.1867 
124 1 60.1138 15.1008 11.1867 
125 1 64.0279 13.1437 9.22957 
126 1 65.985 15.1008 9.22957 
127 1 65.985 13.1437 11.1867 
128 1 64.0279 15.1008 11.1867 
129 1 67.9421 13.1437 9.22957 
130 1 69.8992 15.1008 9.22957 
131 1 69.8992 13.1437 11.1867 
132 1 67.9421 15.1008 11.1867 
133 1 71.8563 13.1437 9.22957 
134 1 73.8133 15.1008 9.22957 
135 1 73.8133 13.1437 11.1867 
136 1 71.8563 15.1008 11.1867 
137 1 9.22957 17.0579 9.22957 
138 1 11.1867 19.015 9.22957 
139 1 11.1867 17.0579 11.1867 
140 1 9.22957 19.015 11.1867 
141 1 13.1437 17.0579 9.22957 
142 1 15.1008 19.015 9.22957 
143 1 15.1008 17.0579 11.1867 
144 1 13.1437 19.015 11.1867 
145 1 17.0579 17.0579 9.22957 
146 1 19.015 19.015 9.22957 
147 1 19.015 17.0579 11.1867 
148 1 17.0579 19.015 11.1867 
149 1 20.9721 17.0579 9.22957 
150 1 22.9292 19.015 9.22957 
151 1 22.9292 17.0579 11.1867 
152 1 20.9721 19.015 11.1867 
153 1 24.8862 17.0579 9.22957 
154 1 26.8433 19.015 9.22957 
155 1 26.8433 17.0579 11.1867 
156 1 24.8862 19.015 11.1867 
157 1 28.8004 17.0579 9.22957 
158 1 30.7575 19.015 9.22957 
159 1 30.7575 17.0579 11.1867 
160 1 28.8004 19.015 11.1867 
161 1 32.7146 17.0579 9.22957 
162 1 34.6717 19.015 9.22957 
163 1 34.6717 17.0579 11.1867 
164 1 32.7146 19.015 11.1867 
165 1 36.6287 17.0579 9.22957 
166 1 38.5858 19.015 9.22957 
167 1 38.5858 17.0579 11.1867 
168 1 36.6287 19.015 11.1867 
169 1 40.5429 17.0579 9.22957 
170 1 42.5 19.015 9.22957 
171 1 42.5 17.0579 11.1867 
172 1 40.5429 19.015 11.1867 
173 1 44.4571 17.0579 9.22957 
174 1 46.4142 19.015 9.22957 
175 1 46.4142 17.0579 11.1867 
176 1 44.4571 19.015 11.1867 
177 1 48.3713 17.0579 9.22957 
178 1 50.3283 19.015 9.22957 
179 1 50.3283 17.0579 11.1867 
180 1 48.3713 19.015 11.1867 
181 1 52.2854 17.0579 9.22957 
182 1 54.2425 19.015 9.22957 
183 1 54.2425 17.0579 11.1867 
184 1 52.2854 19.015 11.1867 
185 1 56.1996 17.0579 9.22957 
186 1 58.1567 19.015 9.22957 
187 1 58.1567 17.0579 11.1867 
188 1 56.1996 19.015 11.1867 
189 1 60.1138 17.0579 9.22957 
190 1 62.0708 19.015 9.22957 
191 1 62.0708 17.0579 11.1867 
192 1 60.1138 19.015 11.1867 
193 1 64.0279 17.0579 9.22957 
194 1 65.985 19.015 9.22957 
195 1 65.985 17.0579 11.1867 
196 1 64.0279 19.015 11.1867 
197 1 67.9421 17.0579 9.22957 
198 1 69.8992 19.015 9.22957 
199 1 69.8992 17.0579 11.1867 
200 1 67.9421 19.015 11.1867 
201 1 71.8563 17.0579 9.22957 
202 1 73.8133 19.015 9.22957 
203 1 73.8133 17.0579 11.1867 
204 1 71.8563 19.015 11.1867 
205 1 9.22957 20.9721 9.22957 
206 1 11.1867 22.9292 9.22957 
207 1 11.1867 20.9721 11.1867 
208 1 9.22957 22.9292 11.1867 
209 1 13.1437 20.9721 9.22957 
210 1 15.1008 22.9292 9.22957 
211 1 15.1008 20.9721 11.1867 
212 1 13.1437 22.9292 11.1867 
213 1 17.0579 20.9721 9.22957 
214 1 19.015 22.9292 9.22957 
215 1 19.015 20.9721 11.1867 
216 1 17.0579 22.9292 11.1867 
217 1 20.9721 20.9721 9.22957 
218 1 22.9292 22.9292 9.22957 
219 1 22.9292 20.9721 11.1867 
220 1 20.9721 22.9292 11.1867 
221 1 24.8862 20.9721 9.22957 
222 1 26.8433 22.9292 9.22957 
223 1 26.8433 20.9721 11.1867 
224 1 24.8862 22.9292 11.1867 
225 1 28.8004 20.9721 9.22957 
226 1 30.7575 22.9292 9.22957 
227 1 30.7575 20.9721 11.1867 
228 1 28.8004 22.9292 11.1867 
229 1 32.7146 20.9721 9.22957 
230 1 34.6717 22.9292 9.22957 
231 1 34.6717 20.9721 11.1867 
232 1 32.7146 22.9292 11.1867 
233 1 36.6287 20.9721 9.22957 
234 1 38.5858 22.9292 9.22957 
235 1 38.5858 20.9721 11.1867 
236 1 36.6287 22.9292 11.1867 
237 1 40.5429 20.9721 9.22957 
238 1 42.5 22.9292 9.22957 
239 1 42.5 20.9721 11.1867 
240 1 40.5429 22.9292 11.1867 
241 1 44.4571 20.9721 9.22957 
242 1 46.4142 22.9292 9.22957 
243 1 46.4142 20.9721 11.1867 
244 1 44.4571 22.9292 11.1867 
245 1 48.3713 20.9721 9.22957 
246 1 50.3283 22.9292 9.22957 
247 1 50.3283 20.9721 11.1867 
248 1 48.3713 22.9292 11.1867 
249 1 52.2854 20.9721 9.22957 
250 1 54.2425 22.9292 9.22957 
251 1 54.2425 20.9721 11.1867 
252 1 52.2854 22.9292 11.1867 
253 1 56.1996 20.9721 9.22957 
254 1 58.1567 22.9292 9.22957 
255 1 58.1567 20.9721 11.1867 
256 1 56.1996 22.9292 11.1867 
257 1 60.1138 20.9721 9.22957 
258 1 62.0708 22.9292 9.22957 
259 1 62.0708 20.9721 11.1867 
260 1 60.1138 22.9292 11.1867 
261 1 64.0279 20.9721 9.22957 
262 1 65.985 22.9292 9.22957 
263 1 65.985 20.9721 11.1867 
264 1 64.0279 22.9292 11.1867 
265 1 67.9421 20.9721 9.22957 
266 1 69.8992 22.9292 9.22957 
267 1 69.8992 20.9721 11.1867 
268 1 67.9421 22.9292 11.1867 
269 1 71.8563 20.9721 9.22957 
270 1 73.8133 22.9292 9.22957 
271 1 73.8133 20.9721 11.1867 
272 1 71.8563 22.9292 11.1867 
273 1 9.22957 24.8862 9.22957 
274 1 11.1867 26.8433 9.22957 
275 1 11.1867 24.8862 11.1867 
276 1 9.22957 26.8433 11.1867 
277 1 13.1437 24.8862 9.22957 
278 1 15.1008 26.8433 9.22957 
279 1 15.1008 24.8862 11.1867 
280 1 13.1437 26.8433 11.1867 
281 1 17.0579 24.8862 9.22957 
282 1 19.015 26.8433 9.22957 
283 1 19.015 24.8862 11.1867 
284 1 17.0579 26.8433 11.1867 
285 1 20.9721 24.8862 9.22957 
286 1 22.9292 26.8433 9.22957 
287 1 22.9292 24.8862 11.1867 
288 1 20.9721 26.8433 11.1867 
289 1 24.8862 24.8862 9.22957 
290 1 26.8433 26.8433 9.22957 
291 1 26.8433 24.8862 11.1867 
292 1 24.8862 26.8433 11.1867 
293 1 28.8004 24.8862 9.22957 
294 1 30.7575 26.8433 9.22957 
295 1 30.7575 24.8862 11.1867 
296 1 28.8004 26.8433 11.1867 
297 1 32.7146 24.8862 9.22957 
298 1 34.6717 26.8433 9.22957 
299 1 34.6717 24.8862 11.1867 
300 1 32.7146 26.8433 11.1867 
301 1 36.6287 24.8862 9.22957 
302 1 38.5858 26.8433 9.22957 
303 1 38.5858 24.8862 11.1867 
304 1 36.6287 26.8433 11.1867 
305 1 40.5429 24.8862 9.22957 
306 1 42.5 26.8433 9.22957 
307 1 42.5 24.8862 11.1867 
308 1 40.5429 26.8433 11.1867 
309 1 44.4571 24.8862 9.22957 
310 1 46.4142 26.8433 9.22957 
311 1 46.4142 24.8862 11.1867 
312 1 44.4571 26.8433 11.1867 
313 1 48.3713 24.8862 9.22957 
314 1 50.3283 26.8433 9.22957 
315 1 50.3283 24.8862 11.1867 
316 1 48.3713 26.8433 11.1867 
317 1 52.2854 24.8862 9.22957 
318 1 54.2425 26.8433 9.22957 
319 1 54.2425 24.8862 11.1867 
320 1 52.2854 26.8433 11.1867 
321 1 56.1996 24.8862 9.22957 
322 1 58.1567 26.8433 9.22957 
323 1 58.1567 24.8862 11.1867 
324 1 56.1996 26.8433 11.1867 
325 1 60.1138 24.8862 9.22957 
326 1 62.0708 26.8433 9.22957 
327 1 62.0708 24.8862 11.1867 
328 1 60.1138 26.8433 11.1867 
329 1 64.0279 24.8862 9.22957 
330 1 65.985 26.8433 9.22957 
331 1 65.985 24.8862 11.1867 
332 1 64.0279 26.8433 11.1867 
333 1 67.9421 24.8862 9.22957 
334 1 69.8992 26.8433 9.22957 
335 1 69.8992 24.8862 11.1867 
336 1 67.9421 26.8433 11.1867 
337 1 71.8563 24.8862 9.22957 
338 1 73.8133 26.8433 9.22957 
339 1 73.8133 24.8862 11.1867 
340 1 71.8563 26.8433 11.1867 
341 1 9.22957 28.8004 9.22957 
342 1 11.1867 30.7575 9.22957 
343 1 11.1867 28.8004 11.1867 
344 1 9.22957 30.7575 11.1867 
345 1 13.1437 28.8004 9.22957 
346 1 15.1008 30.7575 9.22957 
347 1 15.1008 28.8004 11.1867 
348 1 13.1437 30.7575 11.1867 
349 1 17.0579 28.8004 9.22957 
350 1 19.015 30.7575 9.22957 
351 1 19.015 28.8004 11.1867 
352 1 17.0579 30.7575 11.1867 
353 1 20.9721 28.8004 9.22957 
354 1 22.9292 30.7575 9.22957 
355 1 22.9292 28.8004 11.1867 
356 1 20.9721 30.7575 11.1867 
357 1 24.8862 28.8004 9.22957 
358 1 26.8433 30.7575 9.22957 
359 1 26.8433 28.8004 11.1867 
360 1 24.8862 30.7575 11.1867 
361 1 28.8004 28.8004 9.22957 
362 1 30.7575 30.7575 9.22957 
363 1 30.7575 28.8004 11.1867 
364 1 28.8004 30.7575 11.1867 
365 1 32.7146 28.8004 9.22957 
366 1 34.6717 30.7575 9.22957 
367 1 34.6717 28.8004 11.1867 
368 1 32.7146 30.7575 11.1867 
369 1 36.6287 28.8004 9.22957 
370 1 38.5858 30.7575 9.22957 
371 1 38.5858 28.8004 11.1867 
372 1 36.6287 30.7575 11.1867 
373 1 40.5429 28.8004 9.22957 
374 1 42.5 30.7575 9.22957 
375 1 42.5 28.8004 11.1867 
376 1 40.5429 30.7575 11.1867 
377 1 44.4571 28.8004 9.22957 
378 1 46.4142 30.7575 9.22957 
379 1 46.4142 28.8004 11.1867 
380 1 44.4571 30.7575 11.1867 
381 1 48.3713 28.8004 9.22957 
382 1 50.3283 30.7575 9.22957 
383 1 50.3283 28.8004 11.1867 
384 1 48.3713 30.7575 11.1867 
385 1 52.2854 28.8004 9.22957 
386 1 54.2425 30.7575 9.22957 
387 1 54.2425 28.8004 11.1867 
388 1 52.2854 30.7575 11.1867 
389 1 56.1996 28.8004 9.22957 
390 1 58.1567 30.7575 9.22957 
391 1 58.1567 28.8004 11.1867 
392 1 56.1996 30.7575 11.1867 
393 1 60.1138 28.8004 9.22957 
394 1 62.0708 30.7575 9.22957 
395 1 62.0708 28.8004 11.1867 
396 1 60.1138 30.7575 11.1867 
397 1 64.0279 28.8004 9.22957 
398 1 65.985 30.7575 9.22957 
399 1 65.985 28.8004 11.1867 
400 1 64.0279 30.7575 11.1867 
401 1 67.9421 28.8004 9.22957 
402 1 69.8992 30.7575 9.22957 
403 1 69.8992 28.8004 11.1867 
404 1 67.9421 30.7575 11.1867 
405 1 71.8563 28.8004 9.22957 
406 1 73.8133 30.7575 9.22957 
407 1 73.8133 28.8004 11.1867 
408 1 71.8563 30.7575 11.1867 
409 1 9.22957 32.7146 9.22957 
410 1 11.1867 34.6717 9.22957 
411 1 11.1867 32.7146 11.1867 
412 1 9.22957 34.6717 11.1867 
413 1 13.1437 32.7146 9.22957 
414 1 15.1008 34.6717 9.22957 
415 1 15.1008 32.7146 11.1867 
416 1 13.1437 34.6717 11.1867 
417 1 17.0579 32.7146 9.22957 
418 1 19.015 34.6717 9.22957 
419 1 19.015 32.7146 11.1867 
420 1 17.0579 34.6717 11.1867 
421 1 20.9721 32.7146 9.22957 
422 1 22.9292 34.6717 9.22957 
423 1 22.9292 32.7146 11.1867 
424 1 20.9721 34.6717 11.1867 
425 1 24.8862 32.7146 9.22957 
426 1 26.8433 34.6717 9.22957 
427 1 26.8433 32.7146 11.1867 
428 1 24.8862 34.6717 11.1867 
429 1 28.8004 32.7146 9.22957 
430 1 30.7575 34.6717 9.22957 
431 1 30.7575 32.7146 11.1867 
432 1 28.8004 34.6717 11.1867 
433 1 32.7146 32.7146 9.22957 
434 1 34.6717 34.6717 9.22957 
435 1 34.6717 32.7146 11.1867 
436 1 32.7146 34.6717 11.1867 
437 1 36.6287 32.7146 9.22957 
438 1 38.5858 34.6717 9.22957 
439 1 38.5858 32.7146 11.1867 
440 1 36.6287 34.6717 11.1867 
441 1 40.5429 32.7146 9.22957 
442 1 42.5 34.6717 9.22957 
443 1 42.5 32.7146 11.1867 
444 1 40.5429 34.6717 11.1867 
445 1 44.4571 32.7146 9.22957 
446 1 46.4142 34.6717 9.22957 
447 1 46.4142 32.7146 11.1867 
448 1 44.4571 34.6717 11.1867 
449 1 48.3713 32.7146 9.22957 
450 1 50.3283 34.6717 9.22957 
451 1 50.3283 32.7146 11.1867 
452 1 48.3713 34.6717 11.1867 
453 1 52.2854 32.7146 9.22957 
454 1 54.2425 34.6717 9.22957 
455 1 54.2425 32.7146 11.1867 
456 1 52.2854 34.6717 11.1867 
457 1 56.1996 32.7146 9.22957 
458 1 58.1567 34.6717 9.22957 
459 1 58.1567 32.7146 11.1867 
460 1 56.1996 34.6717 11.1867 
461 1 60.1138 32.7146 9.22957 
462 1 62.0708 34.6717 9.22957 
463 1 62.0708 32.7146 11.1867 
464 1 60.1138 34.6717 11.1867 
465 1 64.0279 32.7146 9.22957 
466 1 65.985 34.6717 9.22957 
467 1 65.985 32.7146 11.1867 
468 1 64.0279 34.6717 11.1867 
469 1 67.9421 32.7146 9.22957 
470 1 69.8992 34.6717 9.22957 
471 1 69.8992 32.7146 11.1867 
472 1 67.9421 34.6717 11.1867 
473 1 71.8563 32.7146 9.22957 
474 1 73.8133 34.6717 9.22957 
475 1 73.8133 32.7146 11.1867 
476 1 71.8563 34.6717 11.1867 
477 1 9.22957 36.6287 9.22957 
478 1 11.1867 38.5858 9.22957 
479 1 11.1867 36.6287 11.1867 
480 1 9.22957 38.5858 11.1867 
481 1 13.1437 36.6287 9.22957 
482 1 15.1008 38.5858 9.22957 
483 1 15.1008 36.6287 11.1867 
484 1 13.1437 38.5858 11.1867 
485 1 17.0579 36.6287 9.22957 
486 1 19.015 38.5858 9.22957 
487 1 19.015 36.6287 11.1867 
488 1 17.0579 38.5858 11.1867 
489 1 20.9721 36.6287 9.22957 
490 1 22.9292 38.5858 9.22957 
491 1 22.9292 36.6287 11.1867 
492 1 20.9721 38.5858 11.1867 
493 1 24.8862 36.6287 9.22957 
494 1 26.8433 38.5858 9.22957 
495 1 26.8433 36.6287 11.1867 
496 1 24.8862 38.5858 11.1867 
497 1 28.8004 36.6287 9.22957 
498 1 30.7575 38.5858 9.22957 
499 1 30.7575 36.6287 11.1867 
500 1 28.8004 38.5858 11.1867 
501 1 32.7146 36.6287 9.22957 
502 1 34.6717 38.5858 9.22957 
503 1 34.6717 36.6287 11.1867 
504 1 32.7146 38.5858 11.1867 
505 1 36.6287 36.6287 9.22957 
506 1 38.5858 38.5858 9.22957 
507 1 38.5858 36.6287 11.1867 
508 1 36.6287 38.5858 11.1867 
509 1 40.5429 36.6287 9.22957 
510 1 42.5 38.5858 9.22957 
511 1 42.5 36.6287 11.1867 
512 1 40.5429 38.5858 11.1867 
513 1 44.4571 36.6287 9.22957 
514 1 46.4142 38.5858 9.22957 
515 1 46.4142 36.6287 11.1867 
516 1 44.4571 38.5858 11.1867 
517 1 48.3713 36.6287 9.22957 
518 1 50.3283 38.5858 9.22957 
519 1 50.3283 36.6287 11.1867 
520 1 48.3713 38.5858 11.1867 
521 1 52.2854 36.6287 9.22957 
522 1 54.2425 38.5858 9.22957 
523 1 54.2425 36.6287 11.1867 
524 1 52.2854 38.5858 11.1867 
525 1 56.1996 36.6287 9.22957 
526 1 58.1567 38.5858 9.22957 
527 1 58.1567 36.6287 11.1867 
528 1 56.1996 38.5858 11.1867 
529 1 60.1138 36.6287 9.22957 
530 1 62.0708 38.5858 9.22957 
531 1 62.0708 36.6287 11.1867 
532 1 60.1138 38.5858 11.1867 
533 1 64.0279 36.6287 9.22957 
534 1 65.985 38.5858 9.22957 
535 1 65.985 36.6287 11.1867 
536 1 64.0279 38.5858 11.1867 
537 1 67.9421 36.6287 9.22957 
538 1 69.8992 38.5858 9.22957 
539 1 69.8992 36.6287 11.1867 
540 1 67.9421 38.5858 11.1867 
541 1 71.8563 36.6287 9.22957 
542 1 73.8133 38.5858 9.22957 
543 1 73.8133 36.6287 11.1867 
544 1 71.8563 38.5858 11.1867 
545 1 9.22957 40.5429 9.22957 
546 1 11.1867 42.5 9.22957 
547 1 11.1867 40.5429 11.1867 
548 1 9.22957 42.5 11.1867 
549 1 13.1437 40.5429 9.22957 
550 1 15.1008 42.5 9.22957 
551 1 15.1008 40.5429 11.1867 
552 1 13.1437 42.5 11.1867 
553 1 17.0579 40.5429 9.22957 
554 1 19.015 42.5 9.22957 
555 1 19.015 40.5429 11.1867 
556 1 17.0579 42.5 11.1867 
557 1 20.9721 40.5429 9.22957 
558 1 22.9292 42.5 9.22957 
559 1 22.9292 40.5429 11.1867 
560 1 20.9721 42.5 11.1867 
561 1 24.8862 40.5429 9.22957 
562 1 26.8433 42.5 9.22957 
563 1 26.8433 40.5429 11.1867 
564 1 24.8862 42.5 11.1867 
565 1 28.8004 40.5429 9.22957 
566 1 30.7575 42.5 9.22957 
567 1 30.7575 40.5429 11.1867 
568 1 28.8004 42.5 11.1867 
569 1 32.7146 40.5429 9.22957 
570 1 34.6717 42.5 9.22957 
571 1 34.6717 40.5429 11.1867 
572 1 32.7146 42.5 11.1867 
573 1 36.6287 40.5429 9.22957 
574 1 38.5858 42.5 9.22957 
575 1 38.5858 40.5429 11.1867 
576 1 36.6287 42.5 11.1867 
577 1 40.5429 40.5429 9.22957 
578 1 42.5 42.5 9.22957 
579 1 42.5 40.5429 11.1867 
580 1 40.5429 42.5 11.1867 
581 1 44.4571 40.5429 9.22957 
582 1 46.4142 42.5 9.22957 
583 1 46.4142 40.5429 11.1867 
584 1 44.4571 42.5 11.1867 
585 1 48.3713 40.5429 9.22957 
586 1 50.3283 42.5 9.22957 
587 1 50.3283 40.5429 11.1867 
588 1 48.3713 42.5 11.1867 
589 1 52.2854 40.5429 9.22957 
590 1 54.2425 42.5 9.22957 
591 1 54.2425 40.5429 11.1867 
592 1 52.2854 42.5 11.1867 
593 1 56.1996 40.5429 9.22957 
594 1 58.1567 42.5 9.22957 
595 1 58.1567 40.5429 11.1867 
596 1 56.1996 42.5 11.1867 
597 1 60.1138 40.5429 9.22957 
598 1 62.0708 42.5 9.22957 
599 1 62.0708 40.5429 11.1867 
600 1 60.1138 42.5 11.1867 
601 1 64.0279 40.5429 9.22957 
602 1 65.985 42.5 9.22957 
603 1 65.985 40.5429 11.1867 
604 1 64.0279 42.5 11.1867 
605 1 67.9421 40.5429 9.22957 
606 1 69.8992 42.5 9.22957 
607 1 69.8992 40.5429 11.1867 
608 1 67.9421 42.5 11.1867 
609 1 71.8563 40.5429 9.22957 
610 1 73.8133 42.5 9.22957 
611 1 73.8133 40.5429 11.1867 
612 1 71.8563 42.5 11.1867 
613 1 9.22957 44.4571 9.22957 
614 1 11.1867 46.4142 9.22957 
615 1 11.1867 44.4571 11.1867 
616 1 9.22957 46.4142 11.1867 
617 1 13.1437 44.4571 9.22957 
618 1 15.1008 46.4142 9.22957 
619 1 15.1008 44.4571 11.1867 
620 1 13.1437 46.4142 11.1867 
621 1 17.0579 44.4571 9.22957 
622 1 19.015 46.4142 9.22957 
623 1 19.015 44.4571 11.1867 
624 1 17.0579 46.4142 11.1867 
625 1 20.9721 44.4571 9.22957 
626 1 22.9292 46.4142 9.22957 
627 1 22.9292 44.4571 11.1867 
628 1 20.9721 46.4142 11.1867 
629 1 24.8862 44.4571 9.22957 
630 1 26.8433 46.4142 9.22957 
631 1 26.8433 44.4571 11.1867 
632 1 24.8862 46.4142 11.1867 
633 1 28.8004 44.4571 9.22957 
634 1 30.7575 46.4142 9.22957 
635 1 30.7575 44.4571 11.1867 
636 1 28.8004 46.4142 11.1867 
637 1 32.7146 44.4571 9.22957 
638 1 34.6717 46.4142 9.22957 
639 1 34.6717 44.4571 11.1867 
640 1 32.7146 46.4142 11.1867 
641 1 36.6287 44.4571 9.22957 
642 1 38.5858 46.4142 9.22957 
643 1 38.5858 44.4571 11.1867 
644 1 36.6287 46.4142 11.1867 
645 1 40.5429 44.4571 9.22957 
646 1 42.5 46.4142 9.22957 
647 1 42.5 44.4571 11.1867 
648 1 40.5429 46.4142 11.1867 
649 1 44.4571 44.4571 9.22957 
650 1 46.4142 46.4142 9.22957 
651 1 46.4142 44.4571 11.1867 
652 1 44.4571 46.4142 11.1867 
653 1 48.3713 44.4571 9.22957 
654 1 50.3283 46.4142 9.22957 
655 1 50.3283 44.4571 11.1867 
656 1 48.3713 46.4142 11.1867 
657 1 52.2854 44.4571 9.22957 
658 1 54.2425 46.4142 9.22957 
659 1 54.2425 44.4571 11.1867 
660 1 52.2854 46.4142 11.1867 
661 1 56.1996 44.4571 9.22957 
662 1 58.1567 46.4142 9.22957 
663 1 58.1567 44.4571 11.1867 
664 1 56.1996 46.4142 11.1867 
665 1 60.1138 44.4571 9.22957 
666 1 62.0708 46.4142 9.22957 
667 1 62.0708 44.4571 11.1867 
668 1 60.1138 46.4142 11.1867 
669 1 64.0279 44.4571 9.22957 
670 1 65.985 46.4142 9.22957 
671 1 65.985 44.4571 11.1867 
672 1 64.0279 46.4142 11.1867 
673 1 67.9421 44.4571 9.22957 
674 1 69.8992 46.4142 9.22957 
675 1 69.8992 44.4571 11.1867 
676 1 67.9421 46.4142 11.1867 
677 1 71.8563 44.4571 9.22957 
678 1 73.8133 46.4142 9.22957 
679 1 73.8133 44.4571 11.1867 
680 1 71.8563 46.4142 11.1867 
681 1 9.22957 48.3713 9.22957 
682 1 11.1867 50.3283 9.22957 
683 1 11.1867 48.3713 11.1867 
684 1 9.22957 50.3283 11.1867 
685 1 13.1437 48.3713 9.22957 
686 1 15.1008 50.3283 9.22957 
687 1 15.1008 48.3713 11.1867 
688 1 13.1437 50.3283 11.1867 
689 1 17.0579 48.3713 9.22957 
690 1 19.015 50.3283 9.22957 
691 1 19.015 48.3713 11.1867 
692 1 17.0579 50.3283 11.1867 
693 1 20.9721 48.3713 9.22957 
694 1 22.9292 50.3283 9.22957 
695 1 22.9292 48.3713 11.1867 
696 1 20.9721 50.3283 11.1867 
697 1 24.8862 48.3713 9.22957 
698 1 26.8433 50.3283 9.22957 
699 1 26.8433 48.3713 11.1867 
700 1 24.8862 50.3283 11.1867 
701 1 28.8004 48.3713 9.22957 
702 1 30.7575 50.3283 9.22957 
703 1 30.7575 48.3713 11.1867 
704 1 28.8004 50.3283 11.1867 
705 1 32.7146 48.3713 9.22957 
706 1 34.6717 50.3283 9.22957 
707 1 34.6717 48.3713 11.1867 
708 1 32.7146 50.3283 11.1867 
709 1 36.6287 48.3713 9.22957 
710 1 38.5858 50.3283 9.22957 
711 1 38.5858 48.3713 11.1867 
712 1 36.6287 50.3283 11.1867 
713 1 40.5429 48.3713 9.22957 
714 1 42.5 50.3283 9.22957 
715 1 42.5 48.3713 11.1867 
716 1 40.5429 50.3283 11.1867 
717 1 44.4571 48.3713 9.22957 
718 1 46.4142 50.3283 9.22957 
719 1 46.4142 48.3713 11.1867 
720 1 44.4571 50.3283 11.1867 
721 1 48.3713 48.3713 9.22957 
722 1 50.3283 50.3283 9.22957 
723 1 50.3283 48.3713 11.1867 
724 1 48.3713 50.3283 11.1867 
725 1 52.2854 48.3713 9.22957 
726 1 54.2425 50.3283 9.22957 
727 1 54.2425 48.3713 11.1867 
728 1 52.2854 50.3283 11.1867 
729 1 56.1996 48.3713 9.22957 
730 1 58.1567 50.3283 9.22957 
731 1 58.1567 48.3713 11.1867 
732 1 56.1996 50.3283 11.1867 
733 1 60.1138 48.3713 9.22957 
734 1 62.0708 50.3283 9.22957 
735 1 62.0708 48.3713 11.1867 
736 1 60.1138 50.3283 11.1867 
737 1 64.0279 48.3713 9.22957 
738 1 65.985 50.3283 9.22957 
739 1 65.985 48.3713 11.1867 
740 1 64.0279 50.3283 11.1867 
741 1 67.9421 48.3713 9.22957 
742 1 69.8992 50.3283 9.22957 
743 1 69.8992 48.3713 11.1867 
744 1 67.9421 50.3283 11.1867 
745 1 71.8563 48.3713 9.22957 
746 1 73.8133 50.3283 9.22957 
747 1 73.8133 48.3713 11.1867 
748 1 71.8563 50.3283 11.1867 
749 1 9.22957 52.2854 9.22957 
750 1 11.1867 54.2425 9.22957 
751 1 11.1867 52.2854 11.1867 
752 1 9.22957 54.2425 11.1867 
753 1 13.1437 52.2854 9.22957 
754 1 15.1008 54.2425 9.22957 
755 1 15.1008 52.2854 11.1867 
756 1 13.1437 54.2425 11.1867 
757 1 17.0579 52.2854 9.22957 
758 1 19.015 54.2425 9.22957 
759 1 19.015 52.2854 11.1867 
760 1 17.0579 54.2425 11.1867 
761 1 20.9721 52.2854 9.22957 
762 1 22.9292 54.2425 9.22957 
763 1 22.9292 52.2854 11.1867 
764 1 20.9721 54.2425 11.1867 
765 1 24.8862 52.2854 9.22957 
766 1 26.8433 54.2425 9.22957 
767 1 26.8433 52.2854 11.1867 
768 1 24.8862 54.2425 11.1867 
769 1 28.8004 52.2854 9.22957 
770 1 30.7575 54.2425 9.22957 
771 1 30.7575 52.2854 11.1867 
772 1 28.8004 54.2425 11.1867 
773 1 32.7146 52.2854 9.22957 
774 1 34.6717 54.2425 9.22957 
775 1 34.6717 52.2854 11.1867 
776 1 32.7146 54.2425 11.1867 
777 1 36.6287 52.2854 9.22957 
778 1 38.5858 54.2425 9.22957 
779 1 38.5858 52.2854 11.1867 
780 1 36.6287 54.2425 11.1867 
781 1 40.5429 52.2854 9.22957 
782 1 42.5 54.2425 9.22957 
783 1 42.5 52.2854 11.1867 
784 1 40.5429 54.2425 11.1867 
785 1 44.4571 52.2854 9.22957 
786 1 46.4142 54.2425 9.22957 
787 1 46.4142 52.2854 11.1867 
788 1 44.4571 54.2425 11.1867 
789 1 48.3713 52.2854 9.22957 
790 1 50.3283 54.2425 9.22957 
791 1 50.3283 52.2854 11.1867 
792 1 48.3713 54.2425 11.1867 
793 1 52.2854 52.2854 9.22957 
794 1 54.2425 54.2425 9.22957 
795 1 54.2425 52.2854 11.1867 
796 1 52.2854 54.2425 11.1867 
797 1 56.1996 52.2854 9.22957 
798 1 58.1567 54.2425 9.22957 
799 1 58.1567 52.2854 11.1867 
800 1 56.1996 54.2425 11.1867 
801 1 60.1138 52.2854 9.22957 
802 1 62.0708 54.2425 9.22957 
803 1 62.0708 52.2854 11.1867 
804 1 60.1138 54.2425 11.1867 
805 1 64.0279 52.2854 9.22957 
806 1 65.985 54.2425 9.22957 
807 1 65.985 52.2854 11.1867 
808 1 64.0279 54.2425 11.1867 
809 1 67.9421 52.2854 9.22957 
810 1 69.8992 54.2425 9.22957 
811 1 69.8992 52.2854 11.1867 
812 1 67.9421 54.2425 11.1867 
813 1 71.8563 52.2854 9.22957 
814 1 73.8133 54.2425 9.22957 
815 1 73.8133 52.2854 11.1867 
816 1 71.8563 54.2425 11.1867 
817 1 9.22957 56.1996 9.22957 
818 1 11.1867 58.1567 9.22957 
819 1 11.1867 56.1996 11.1867 
820 1 9.22957 58.1567 11.1867 
821 1 13.1437 56.1996 9.22957 
822 1 15.1008 58.1567 9.22957 
823 1 15.1008 56.1996 11.1867 
824 1 13.1437 58.1567 11.1867 
825 1 17.0579 56.1996 9.22957 
826 1 19.015 58.1567 9.22957 
827 1 19.015 56.1996 11.1867 
828 1 17.0579 58.1567 11.1867 
829 1 20.9721 56.1996 9.22957 
830 1 22.9292 58.1567 9.22957 
831 1 22.9292 56.1996 11.1867 
832 1 20.9721 58.1567 11.1867 
833 1 24.8862 56.1996 9.22957 
834 1 26.8433 58.1567 9.22957 
835 1 26.8433 56.1996 11.1867 
836 1 24.8862 58.1567 11.1867 
837 1 28.8004 56.1996 9.22957 
838 1 30.7575 58.1567 9.22957 
839 1 30.7575 56.1996 11.1867 
840 1 28.8004 58.1567 11.1867 
841 1 32.7146 56.1996 9.22957 
842 1 34.6717 58.1567 9.22957 
843 1 34.6717 56.1996 11.1867 
844 1 32.7146 58.1567 11.1867 
845 1 36.6287 56.1996 9.22957 
846 1 38.5858 58.1567 9.22957 
847 1 38.5858 56.1996 11.1867 
848 1 36.6287 58.1567 11.1867 
849 1 40.5429 56.1996 9.22957 
850 1 42.5 58.1567 9.22957 
851 1 42.5 56.1996 11.1867 
852 1 40.5429 58.1567 11.1867 
853 1 44.4571 56.1996 9.22957 
854 1 46.4142 58.1567 9.22957 
855 1 46.4142 56.1996 11.1867 
856 1 44.4571 58.1567 11.1867 
857 1 48.3713 56.1996 9.22957 
858 1 50.3283 58.1567 9.22957 
859 1 50.3283 56.1996 11.1867 
860 1 48.3713 58.1567 11.1867 
861 1 52.2854 56.1996 9.22957 
862 1 54.2425 58.1567 9.22957 
863 1 54.2425 56.1996 11.1867 
864 1 52.2854 58.1567 11.1867 
865 1 56.1996 56.1996 9.22957 
866 1 58.1567 58.1567 9.22957 
867 1 58.1567 56.1996 11.1867 
868 1 56.1996 58.1567 11.1867 
869 1 60.1138 56.1996 9.22957 
870 1 62.0708 58.1567 9.22957 
871 1 62.0708 56.1996 11.1867 
872 1 60.1138 58.1567 11.1867 
873 1 64.0279 56.1996 9.22957 
874 1 65.985 58.1567 9.22957 
875 1 65.985 56.1996 11.1867 
876 1 64.0279 58.1567 11.1867 
877 1 67.9421 56.1996 9.22957 
878 1 69.8992 58.1567 9.22957 
879 1 69.8992 56.1996 11.1867 
880 1 67.9421 58.1567 11.1867 
881 1 71.8563 56.1996 9.22957 
882 1 73.8133 58.1567 9.22957 
883 1 73.8133 56.1996 11.1867 
884 1 71.8563 58.1567 11.1867 
885 1 9.22957 60.1138 9.22957 
886 1 11.1867 62.0708 9.22957 
887 1 11.1867 60.1138 11.1867 
888 1 9.22957 62.0708 11.1867 
889 1 13.1437 60.1138 9.22957 
890 1 15.1008 62.0708 9.22957 
891 1 15.1008 60.1138 11.1867 
892 1 13.1437 62.0708 11.1867 
893 1 17.0579 60.1138 9.22957 
894 1 19.015 62.0708 9.22957 
895 1 19.015 60.1138 11.1867 
896 1 17.0579 62.0708 11.1867 
897 1 20.9721 60.1138 9.22957 
898 1 22.9292 62.0708 9.22957 
899 1 22.9292 60.1138 11.1867 
900 1 20.9721 62.0708 11.1867 
901 1 24.8862 60.1138 9.22957 
902 1 26.8433 62.0708 9.22957 
903 1 26.8433 60.1138 11.1867 
904 1 24.8862 62.0708 11.1867 
905 1 28.8004 60.1138 9.22957 
906 1 30.7575 62.0708 9.22957 
907 1 30.7575 60.1138 11.1867 
908 1 28.8004 62.0708 11.1867 
909 1 32.7146 60.1138 9.22957 
910 1 34.6717 62.0708 9.22957 
911 1 34.6717 60.1138 11.1867 
912 1 32.7146 62.0708 11.1867 
913 1 36.6287 60.1138 9.22957 
914 1 38.5858 62.0708 9.22957 
915 1 38.5858 60.1138 11.1867 
916 1 36.6287 62.0708 11.1867 
917 1 40.5429 60.1138 9.22957 
918 1 42.5 62.0708 9.22957 
919 1 42.5 60.1138 11.1867 
920 1 40.5429 62.0708 11.1867 
921 1 44.4571 60.1138 9.22957 
922 1 46.4142 62.0708 9.22957 
923 1 46.4142 60.1138 11.1867 
924 1 44.4571 62.0708 11.1867 
925 1 48.3713 60.1138 9.22957 
926 1 50.3283 62.0708 9.22957 
927 1 50.3283 60.1138 11.1867 
928 1 48.3713 62.0708 11.1867 
929 1 52.2854 60.1138 9.22957 
930 1 54.2425 62.0708 9.22957 
931 1 54.2425 60.1138 11.1867 
932 1 52.2854 62.0708 11.1867 
933 1 56.1996 60.1138 9.22957 
934 1 58.1567 62.0708 9.22957 
935 1 58.1567 60.1138 11.1867 
936 1 56.1996 62.0708 11.1867 
937 1 60.1138 60.1138 9.22957 
938 1 62.0708 62.0708 9.22957 
939 1 62.0708 60.1138 11.1867 
940 1 60.1138 62.0708 11.1867 
941 1 64.0279 60.1138 9.22957 
942 1 65.985 62.0708 9.22957 
943 1 65.985 60.1138 11.1867 
944 1 64.0279 62.0708 11.1867 
945 1 67.9421 60.1138 9.22957 
946 1 69.8992 62.0708 9.22957 
947 1 69.8992 60.1138 11.1867 
948 1 67.9421 62.0708 11.1867 
949 1 71.8563 60.1138 9.22957 
950 1 73.8133 62.0708 9.22957 
951 1 73.8133 60.1138 11.1867 
952 1 71.8563 62.0708 11.1867 
953 1 9.22957 64.0279 9.22957 
954 1 11.1867 65.985 9.22957 
955 1 11.1867 64.0279 11.1867 
956 1 9.22957 65.985 11.1867 
957 1 13.1437 64.0279 9.22957 
958 1 15.1008 65.985 9.22957 
959 1 15.1008 64.0279 11.1867 
960 1 13.1437 65.985 11.1867 
961 1 17.0579 64.0279 9.22957 
962 1 19.015 65.985 9.22957 
963 1 19.015 64.0279 11.1867 
964 1 17.0579 65.985 11.1867 
965 1 20.9721 64.0279 9.22957 
966 1 22.9292 65.985 9.22957 
967 1 22.9292 64.0279 11.1867 
968 1 20.9721 65.985 11.1867 
969 1 24.8862 64.0279 9.22957 
970 1 26.8433 65.985 9.22957 
971 1 26.8433 64.0279 11.1867 
972 1 24.8862 65.985 11.1867 