ITEM: TIMESTEP
92
ITEM: NUMBER OF ATOMS
9826
ITEM: BOX BOUNDS pp pp pp
1.8801061995176003e+01 6.6198938004823688e+01
1.8801061995176003e+01 6.6198938004823688e+01
1.8801061995176003e+01 6.6198938004823688e+01
ITEM: ATOMS id type xu yu zu 
1 1 18.8011 18.8011 18.8011 
2 1 20.1951 20.1951 20.1951 
3 1 21.5892 18.8011 18.8011 
4 1 22.9832 20.1951 20.1951 
5 1 24.3773 18.8011 18.8011 
6 1 25.7713 20.1951 20.1951 
7 1 27.1654 18.8011 18.8011 
8 1 28.5594 20.1951 20.1951 
9 1 29.9535 18.8011 18.8011 
10 1 31.3476 20.1951 20.1951 
11 1 32.7416 18.8011 18.8011 
12 1 34.1357 20.1951 20.1951 
13 1 35.5297 18.8011 18.8011 
14 1 36.9238 20.1951 20.1951 
15 1 38.3178 18.8011 18.8011 
16 1 39.7119 20.1951 20.1951 
17 1 41.1059 18.8011 18.8011 
18 1 42.5 20.1951 20.1951 
19 1 43.8941 18.8011 18.8011 
20 1 45.2881 20.1951 20.1951 
21 1 46.6822 18.8011 18.8011 
22 1 48.0762 20.1951 20.1951 
23 1 49.4703 18.8011 18.8011 
24 1 50.8643 20.1951 20.1951 
25 1 52.2584 18.8011 18.8011 
26 1 53.6524 20.1951 20.1951 
27 1 55.0465 18.8011 18.8011 
28 1 56.4406 20.1951 20.1951 
29 1 57.8346 18.8011 18.8011 
30 1 59.2287 20.1951 20.1951 
31 1 60.6227 18.8011 18.8011 
32 1 62.0168 20.1951 20.1951 
33 1 63.4108 18.8011 18.8011 
34 1 64.8049 20.1951 20.1951 
35 1 18.8011 21.5892 18.8011 
36 1 20.1951 22.9832 20.1951 
37 1 21.5892 21.5892 18.8011 
38 1 22.9832 22.9832 20.1951 
39 1 24.3773 21.5892 18.8011 
40 1 25.7713 22.9832 20.1951 
41 1 27.1654 21.5892 18.8011 
42 1 28.5594 22.9832 20.1951 
43 1 29.9535 21.5892 18.8011 
44 1 31.3476 22.9832 20.1951 
45 1 32.7416 21.5892 18.8011 
46 1 34.1357 22.9832 20.1951 
47 1 35.5297 21.5892 18.8011 
48 1 36.9238 22.9832 20.1951 
49 1 38.3178 21.5892 18.8011 
50 1 39.7119 22.9832 20.1951 
51 1 41.1059 21.5892 18.8011 
52 1 42.5 22.9832 20.1951 
53 1 43.8941 21.5892 18.8011 
54 1 45.2881 22.9832 20.1951 
55 1 46.6822 21.5892 18.8011 
56 1 48.0762 22.9832 20.1951 
57 1 49.4703 21.5892 18.8011 
58 1 50.8643 22.9832 20.1951 
59 1 52.2584 21.5892 18.8011 
60 1 53.6524 22.9832 20.1951 
61 1 55.0465 21.5892 18.8011 
62 1 56.4406 22.9832 20.1951 
63 1 57.8346 21.5892 18.8011 
64 1 59.2287 22.9832 20.1951 
65 1 60.6227 21.5892 18.8011 
66 1 62.0168 22.9832 20.1951 
67 1 63.4108 21.5892 18.8011 
68 1 64.8049 22.9832 20.1951 
69 1 18.8011 24.3773 18.8011 
70 1 20.1951 25.7713 20.1951 
71 1 21.5892 24.3773 18.8011 
72 1 22.9832 25.7713 20.1951 
73 1 24.3773 24.3773 18.8011 
74 1 25.7713 25.7713 20.1951 
75 1 27.1654 24.3773 18.8011 
76 1 28.5594 25.7713 20.1951 
77 1 29.9535 24.3773 18.8011 
78 1 31.3476 25.7713 20.1951 
79 1 32.7416 24.3773 18.8011 
80 1 34.1357 25.7713 20.1951 
81 1 35.5297 24.3773 18.8011 
82 1 36.9238 25.7713 20.1951 
83 1 38.3178 24.3773 18.8011 
84 1 39.7119 25.7713 20.1951 
85 1 41.1059 24.3773 18.8011 
86 1 42.5 25.7713 20.1951 
87 1 43.8941 24.3773 18.8011 
88 1 45.2881 25.7713 20.1951 
89 1 46.6822 24.3773 18.8011 
90 1 48.0762 25.7713 20.1951 
91 1 49.4703 24.3773 18.8011 
92 1 50.8643 25.7713 20.1951 
93 1 52.2584 24.3773 18.8011 
94 1 53.6524 25.7713 20.1951 
95 1 55.0465 24.3773 18.8011 
96 1 56.4406 25.7713 20.1951 
97 1 57.8346 24.3773 18.8011 
98 1 59.2287 25.7713 20.1951 
99 1 60.6227 24.3773 18.8011 
100 1 62.0168 25.7713 20.1951 
101 1 63.4108 24.3773 18.8011 
102 1 64.8049 25.7713 20.1951 
103 1 18.8011 27.1654 18.8011 
104 1 20.1951 28.5594 20.1951 
105 1 21.5892 27.1654 18.8011 
106 1 22.9832 28.5594 20.1951 
107 1 24.3773 27.1654 18.8011 
108 1 25.7713 28.5594 20.1951 
109 1 27.1654 27.1654 18.8011 
110 1 28.5594 28.5594 20.1951 
111 1 29.9535 27.1654 18.8011 
112 1 31.3476 28.5594 20.1951 
113 1 32.7416 27.1654 18.8011 
114 1 34.1357 28.5594 20.1951 
115 1 35.5297 27.1654 18.8011 
116 1 36.9238 28.5594 20.1951 
117 1 38.3178 27.1654 18.8011 
118 1 39.7119 28.5594 20.1951 
119 1 41.1059 27.1654 18.8011 
120 1 42.5 28.5594 20.1951 
121 1 43.8941 27.1654 18.8011 
122 1 45.2881 28.5594 20.1951 
123 1 46.6822 27.1654 18.8011 
124 1 48.0762 28.5594 20.1951 
125 1 49.4703 27.1654 18.8011 
126 1 50.8643 28.5594 20.1951 
127 1 52.2584 27.1654 18.8011 
128 1 53.6524 28.5594 20.1951 
129 1 55.0465 27.1654 18.8011 
130 1 56.4406 28.5594 20.1951 
131 1 57.8346 27.1654 18.8011 
132 1 59.2287 28.5594 20.1951 
133 1 60.6227 27.1654 18.8011 
134 1 62.0168 28.5594 20.1951 
135 1 63.4108 27.1654 18.8011 
136 1 64.8049 28.5594 20.1951 
137 1 18.8011 29.9535 18.8011 
138 1 20.1951 31.3476 20.1951 
139 1 21.5892 29.9535 18.8011 
140 1 22.9832 31.3476 20.1951 
141 1 24.3773 29.9535 18.8011 
142 1 25.7713 31.3476 20.1951 
143 1 27.1654 29.9535 18.8011 
144 1 28.5594 31.3476 20.1951 
145 1 29.9535 29.9535 18.8011 
146 1 31.3476 31.3476 20.1951 
147 1 32.7416 29.9535 18.8011 
148 1 34.1357 31.3476 20.1951 
149 1 35.5297 29.9535 18.8011 
150 1 36.9238 31.3476 20.1951 
151 1 38.3178 29.9535 18.8011 
152 1 39.7119 31.3476 20.1951 
153 1 41.1059 29.9535 18.8011 
154 1 42.5 31.3476 20.1951 
155 1 43.8941 29.9535 18.8011 
156 1 45.2881 31.3476 20.1951 
157 1 46.6822 29.9535 18.8011 
158 1 48.0762 31.3476 20.1951 
159 1 49.4703 29.9535 18.8011 
160 1 50.8643 31.3476 20.1951 
161 1 52.2584 29.9535 18.8011 
162 1 53.6524 31.3476 20.1951 
163 1 55.0465 29.9535 18.8011 
164 1 56.4406 31.3476 20.1951 
165 1 57.8346 29.9535 18.8011 
166 1 59.2287 31.3476 20.1951 
167 1 60.6227 29.9535 18.8011 
168 1 62.0168 31.3476 20.1951 
169 1 63.4108 29.9535 18.8011 
170 1 64.8049 31.3476 20.1951 
171 1 18.8011 32.7416 18.8011 
172 1 20.1951 34.1357 20.1951 
173 1 21.5892 32.7416 18.8011 
174 1 22.9832 34.1357 20.1951 
175 1 24.3773 32.7416 18.8011 
176 1 25.7713 34.1357 20.1951 
177 1 27.1654 32.7416 18.8011 
178 1 28.5594 34.1357 20.1951 
179 1 29.9535 32.7416 18.8011 
180 1 31.3476 34.1357 20.1951 
181 1 32.7416 32.7416 18.8011 
182 1 34.1357 34.1357 20.1951 
183 1 35.5297 32.7416 18.8011 
184 1 36.9238 34.1357 20.1951 
185 1 38.3178 32.7416 18.8011 
186 1 39.7119 34.1357 20.1951 
187 1 41.1059 32.7416 18.8011 
188 1 42.5 34.1357 20.1951 
189 1 43.8941 32.7416 18.8011 
190 1 45.2881 34.1357 20.1951 
191 1 46.6822 32.7416 18.8011 
192 1 48.0762 34.1357 20.1951 
193 1 49.4703 32.7416 18.8011 
194 1 50.8643 34.1357 20.1951 
195 1 52.2584 32.7416 18.8011 
196 1 53.6524 34.1357 20.1951 
197 1 55.0465 32.7416 18.8011 
198 1 56.4406 34.1357 20.1951 
199 1 57.8346 32.7416 18.8011 
200 1 59.2287 34.1357 20.1951 
201 1 60.6227 32.7416 18.8011 
202 1 62.0168 34.1357 20.1951 
203 1 63.4108 32.7416 18.8011 
204 1 64.8049 34.1357 20.1951 
205 1 18.8011 35.5297 18.8011 
206 1 20.1951 36.9238 20.1951 
207 1 21.5892 35.5297 18.8011 
208 1 22.9832 36.9238 20.1951 
209 1 24.3773 35.5297 18.8011 
210 1 25.7713 36.9238 20.1951 
211 1 27.1654 35.5297 18.8011 
212 1 28.5594 36.9238 20.1951 
213 1 29.9535 35.5297 18.8011 
214 1 31.3476 36.9238 20.1951 
215 1 32.7416 35.5297 18.8011 
216 1 34.1357 36.9238 20.1951 
217 1 35.5297 35.5297 18.8011 
218 1 36.9238 36.9238 20.1951 
219 1 38.3178 35.5297 18.8011 
220 1 39.7119 36.9238 20.1951 
221 1 41.1059 35.5297 18.8011 
222 1 42.5 36.9238 20.1951 
223 1 43.8941 35.5297 18.8011 
224 1 45.2881 36.9238 20.1951 
225 1 46.6822 35.5297 18.8011 
226 1 48.0762 36.9238 20.1951 
227 1 49.4703 35.5297 18.8011 
228 1 50.8643 36.9238 20.1951 
229 1 52.2584 35.5297 18.8011 
230 1 53.6524 36.9238 20.1951 
231 1 55.0465 35.5297 18.8011 
232 1 56.4406 36.9238 20.1951 
233 1 57.8346 35.5297 18.8011 
234 1 59.2287 36.9238 20.1951 
235 1 60.6227 35.5297 18.8011 
236 1 62.0168 36.9238 20.1951 
237 1 63.4108 35.5297 18.8011 
238 1 64.8049 36.9238 20.1951 
239 1 18.8011 38.3178 18.8011 
240 1 20.1951 39.7119 20.1951 
241 1 21.5892 38.3178 18.8011 
242 1 22.9832 39.7119 20.1951 
243 1 24.3773 38.3178 18.8011 
244 1 25.7713 39.7119 20.1951 
245 1 27.1654 38.3178 18.8011 
246 1 28.5594 39.7119 20.1951 
247 1 29.9535 38.3178 18.8011 
248 1 31.3476 39.7119 20.1951 
249 1 32.7416 38.3178 18.8011 
250 1 34.1357 39.7119 20.1951 
251 1 35.5297 38.3178 18.8011 
252 1 36.9238 39.7119 20.1951 
253 1 38.3178 38.3178 18.8011 
254 1 39.7119 39.7119 20.1951 
255 1 41.1059 38.3178 18.8011 
256 1 42.5 39.7119 20.1951 
257 1 43.8941 38.3178 18.8011 
258 1 45.2881 39.7119 20.1951 
259 1 46.6822 38.3178 18.8011 
260 1 48.0762 39.7119 20.1951 
261 1 49.4703 38.3178 18.8011 
262 1 50.8643 39.7119 20.1951 
263 1 52.2584 38.3178 18.8011 
264 1 53.6524 39.7119 20.1951 
265 1 55.0465 38.3178 18.8011 
266 1 56.4406 39.7119 20.1951 
267 1 57.8346 38.3178 18.8011 
268 1 59.2287 39.7119 20.1951 
269 1 60.6227 38.3178 18.8011 
270 1 62.0168 39.7119 20.1951 
271 1 63.4108 38.3178 18.8011 
272 1 64.8049 39.7119 20.1951 
273 1 18.8011 41.1059 18.8011 
274 1 20.1951 42.5 20.1951 
275 1 21.5892 41.1059 18.8011 
276 1 22.9832 42.5 20.1951 
277 1 24.3773 41.1059 18.8011 
278 1 25.7713 42.5 20.1951 
279 1 27.1654 41.1059 18.8011 
280 1 28.5594 42.5 20.1951 
281 1 29.9535 41.1059 18.8011 
282 1 31.3476 42.5 20.1951 
283 1 32.7416 41.1059 18.8011 
284 1 34.1357 42.5 20.1951 
285 1 35.5297 41.1059 18.8011 
286 1 36.9238 42.5 20.1951 
287 1 38.3178 41.1059 18.8011 
288 1 39.7119 42.5 20.1951 
289 1 41.1059 41.1059 18.8011 
290 1 42.5 42.5 20.1951 
291 1 43.8941 41.1059 18.8011 
292 1 45.2881 42.5 20.1951 
293 1 46.6822 41.1059 18.8011 
294 1 48.0762 42.5 20.1951 
295 1 49.4703 41.1059 18.8011 
296 1 50.8643 42.5 20.1951 
297 1 52.2584 41.1059 18.8011 
298 1 53.6524 42.5 20.1951 
299 1 55.0465 41.1059 18.8011 
300 1 56.4406 42.5 20.1951 
301 1 57.8346 41.1059 18.8011 
302 1 59.2287 42.5 20.1951 
303 1 60.6227 41.1059 18.8011 
304 1 62.0168 42.5 20.1951 
305 1 63.4108 41.1059 18.8011 
306 1 64.8049 42.5 20.1951 
307 1 18.8011 43.8941 18.8011 
308 1 20.1951 45.2881 20.1951 
309 1 21.5892 43.8941 18.8011 
310 1 22.9832 45.2881 20.1951 
311 1 24.3773 43.8941 18.8011 
312 1 25.7713 45.2881 20.1951 
313 1 27.1654 43.8941 18.8011 
314 1 28.5594 45.2881 20.1951 
315 1 29.9535 43.8941 18.8011 
316 1 31.3476 45.2881 20.1951 
317 1 32.7416 43.8941 18.8011 
318 1 34.1357 45.2881 20.1951 
319 1 35.5297 43.8941 18.8011 
320 1 36.9238 45.2881 20.1951 
321 1 38.3178 43.8941 18.8011 
322 1 39.7119 45.2881 20.1951 
323 1 41.1059 43.8941 18.8011 
324 1 42.5 45.2881 20.1951 
325 1 43.8941 43.8941 18.8011 
326 1 45.2881 45.2881 20.1951 
327 1 46.6822 43.8941 18.8011 
328 1 48.0762 45.2881 20.1951 
329 1 49.4703 43.8941 18.8011 
330 1 50.8643 45.2881 20.1951 
331 1 52.2584 43.8941 18.8011 
332 1 53.6524 45.2881 20.1951 
333 1 55.0465 43.8941 18.8011 
334 1 56.4406 45.2881 20.1951 
335 1 57.8346 43.8941 18.8011 
336 1 59.2287 45.2881 20.1951 
337 1 60.6227 43.8941 18.8011 
338 1 62.0168 45.2881 20.1951 
339 1 63.4108 43.8941 18.8011 
340 1 64.8049 45.2881 20.1951 
341 1 18.8011 46.6822 18.8011 
342 1 20.1951 48.0762 20.1951 
343 1 21.5892 46.6822 18.8011 
344 1 22.9832 48.0762 20.1951 
345 1 24.3773 46.6822 18.8011 
346 1 25.7713 48.0762 20.1951 
347 1 27.1654 46.6822 18.8011 
348 1 28.5594 48.0762 20.1951 
349 1 29.9535 46.6822 18.8011 
350 1 31.3476 48.0762 20.1951 
351 1 32.7416 46.6822 18.8011 
352 1 34.1357 48.0762 20.1951 
353 1 35.5297 46.6822 18.8011 
354 1 36.9238 48.0762 20.1951 
355 1 38.3178 46.6822 18.8011 
356 1 39.7119 48.0762 20.1951 
357 1 41.1059 46.6822 18.8011 
358 1 42.5 48.0762 20.1951 
359 1 43.8941 46.6822 18.8011 
360 1 45.2881 48.0762 20.1951 
361 1 46.6822 46.6822 18.8011 
362 1 48.0762 48.0762 20.1951 
363 1 49.4703 46.6822 18.8011 
364 1 50.8643 48.0762 20.1951 
365 1 52.2584 46.6822 18.8011 
366 1 53.6524 48.0762 20.1951 
367 1 55.0465 46.6822 18.8011 
368 1 56.4406 48.0762 20.1951 
369 1 57.8346 46.6822 18.8011 
370 1 59.2287 48.0762 20.1951 
371 1 60.6227 46.6822 18.8011 
372 1 62.0168 48.0762 20.1951 
373 1 63.4108 46.6822 18.8011 
374 1 64.8049 48.0762 20.1951 
375 1 18.8011 49.4703 18.8011 
376 1 20.1951 50.8643 20.1951 
377 1 21.5892 49.4703 18.8011 
378 1 22.9832 50.8643 20.1951 
379 1 24.3773 49.4703 18.8011 
380 1 25.7713 50.8643 20.1951 
381 1 27.1654 49.4703 18.8011 
382 1 28.5594 50.8643 20.1951 
383 1 29.9535 49.4703 18.8011 
384 1 31.3476 50.8643 20.1951 
385 1 32.7416 49.4703 18.8011 
386 1 34.1357 50.8643 20.1951 
387 1 35.5297 49.4703 18.8011 
388 1 36.9238 50.8643 20.1951 
389 1 38.3178 49.4703 18.8011 
390 1 39.7119 50.8643 20.1951 
391 1 41.1059 49.4703 18.8011 
392 1 42.5 50.8643 20.1951 
393 1 43.8941 49.4703 18.8011 
394 1 45.2881 50.8643 20.1951 
395 1 46.6822 49.4703 18.8011 
396 1 48.0762 50.8643 20.1951 
397 1 49.4703 49.4703 18.8011 
398 1 50.8643 50.8643 20.1951 
399 1 52.2584 49.4703 18.8011 
400 1 53.6524 50.8643 20.1951 
401 1 55.0465 49.4703 18.8011 
402 1 56.4406 50.8643 20.1951 
403 1 57.8346 49.4703 18.8011 
404 1 59.2287 50.8643 20.1951 
405 1 60.6227 49.4703 18.8011 
406 1 62.0168 50.8643 20.1951 
407 1 63.4108 49.4703 18.8011 
408 1 64.8049 50.8643 20.1951 
409 1 18.8011 52.2584 18.8011 
410 1 20.1951 53.6524 20.1951 
411 1 21.5892 52.2584 18.8011 
412 1 22.9832 53.6524 20.1951 
413 1 24.3773 52.2584 18.8011 
414 1 25.7713 53.6524 20.1951 
415 1 27.1654 52.2584 18.8011 
416 1 28.5594 53.6524 20.1951 
417 1 29.9535 52.2584 18.8011 
418 1 31.3476 53.6524 20.1951 
419 1 32.7416 52.2584 18.8011 
420 1 34.1357 53.6524 20.1951 
421 1 35.5297 52.2584 18.8011 
422 1 36.9238 53.6524 20.1951 
423 1 38.3178 52.2584 18.8011 
424 1 39.7119 53.6524 20.1951 
425 1 41.1059 52.2584 18.8011 
426 1 42.5 53.6524 20.1951 
427 1 43.8941 52.2584 18.8011 
428 1 45.2881 53.6524 20.1951 
429 1 46.6822 52.2584 18.8011 
430 1 48.0762 53.6524 20.1951 
431 1 49.4703 52.2584 18.8011 
432 1 50.8643 53.6524 20.1951 
433 1 52.2584 52.2584 18.8011 
434 1 53.6524 53.6524 20.1951 
435 1 55.0465 52.2584 18.8011 
436 1 56.4406 53.6524 20.1951 
437 1 57.8346 52.2584 18.8011 
438 1 59.2287 53.6524 20.1951 
439 1 60.6227 52.2584 18.8011 
440 1 62.0168 53.6524 20.1951 
441 1 63.4108 52.2584 18.8011 
442 1 64.8049 53.6524 20.1951 
443 1 18.8011 55.0465 18.8011 
444 1 20.1951 56.4406 20.1951 
445 1 21.5892 55.0465 18.8011 
446 1 22.9832 56.4406 20.1951 
447 1 24.3773 55.0465 18.8011 
448 1 25.7713 56.4406 20.1951 
449 1 27.1654 55.0465 18.8011 
450 1 28.5594 56.4406 20.1951 
451 1 29.9535 55.0465 18.8011 
452 1 31.3476 56.4406 20.1951 
453 1 32.7416 55.0465 18.8011 
454 1 34.1357 56.4406 20.1951 
455 1 35.5297 55.0465 18.8011 
456 1 36.9238 56.4406 20.1951 
457 1 38.3178 55.0465 18.8011 
458 1 39.7119 56.4406 20.1951 
459 1 41.1059 55.0465 18.8011 
460 1 42.5 56.4406 20.1951 
461 1 43.8941 55.0465 18.8011 
462 1 45.2881 56.4406 20.1951 
463 1 46.6822 55.0465 18.8011 
464 1 48.0762 56.4406 20.1951 
465 1 49.4703 55.0465 18.8011 
466 1 50.8643 56.4406 20.1951 
467 1 52.2584 55.0465 18.8011 
468 1 53.6524 56.4406 20.1951 
469 1 55.0465 55.0465 18.8011 
470 1 56.4406 56.4406 20.1951 
471 1 57.8346 55.0465 18.8011 
472 1 59.2287 56.4406 20.1951 
473 1 60.6227 55.0465 18.8011 
474 1 62.0168 56.4406 20.1951 
475 1 63.4108 55.0465 18.8011 
476 1 64.8049 56.4406 20.1951 
477 1 18.8011 57.8346 18.8011 
478 1 20.1951 59.2287 20.1951 
479 1 21.5892 57.8346 18.8011 
480 1 22.9832 59.2287 20.1951 
481 1 24.3773 57.8346 18.8011 
482 1 25.7713 59.2287 20.1951 
483 1 27.1654 57.8346 18.8011 
484 1 28.5594 59.2287 20.1951 
485 1 29.9535 57.8346 18.8011 
486 1 31.3476 59.2287 20.1951 
487 1 32.7416 57.8346 18.8011 
488 1 34.1357 59.2287 20.1951 
489 1 35.5297 57.8346 18.8011 
490 1 36.9238 59.2287 20.1951 
491 1 38.3178 57.8346 18.8011 
492 1 39.7119 59.2287 20.1951 
493 1 41.1059 57.8346 18.8011 
494 1 42.5 59.2287 20.1951 
495 1 43.8941 57.8346 18.8011 
496 1 45.2881 59.2287 20.1951 
497 1 46.6822 57.8346 18.8011 
498 1 48.0762 59.2287 20.1951 
499 1 49.4703 57.8346 18.8011 
500 1 50.8643 59.2287 20.1951 
501 1 52.2584 57.8346 18.8011 
502 1 53.6524 59.2287 20.1951 
503 1 55.0465 57.8346 18.8011 
504 1 56.4406 59.2287 20.1951 
505 1 57.8346 57.8346 18.8011 
506 1 59.2287 59.2287 20.1951 
507 1 60.6227 57.8346 18.8011 
508 1 62.0168 59.2287 20.1951 
509 1 63.4108 57.8346 18.8011 
510 1 64.8049 59.2287 20.1951 
511 1 18.8011 60.6227 18.8011 
512 1 20.1951 62.0168 20.1951 
513 1 21.5892 60.6227 18.8011 
514 1 22.9832 62.0168 20.1951 
515 1 24.3773 60.6227 18.8011 
516 1 25.7713 62.0168 20.1951 
517 1 27.1654 60.6227 18.8011 
518 1 28.5594 62.0168 20.1951 
519 1 29.9535 60.6227 18.8011 
520 1 31.3476 62.0168 20.1951 
521 1 32.7416 60.6227 18.8011 
522 1 34.1357 62.0168 20.1951 
523 1 35.5297 60.6227 18.8011 
524 1 36.9238 62.0168 20.1951 
525 1 38.3178 60.6227 18.8011 
526 1 39.7119 62.0168 20.1951 
527 1 41.1059 60.6227 18.8011 
528 1 42.5 62.0168 20.1951 
529 1 43.8941 60.6227 18.8011 
530 1 45.2881 62.0168 20.1951 
531 1 46.6822 60.6227 18.8011 
532 1 48.0762 62.0168 20.1951 
533 1 49.4703 60.6227 18.8011 
534 1 50.8643 62.0168 20.1951 
535 1 52.2584 60.6227 18.8011 
536 1 53.6524 62.0168 20.1951 
537 1 55.0465 60.6227 18.8011 
538 1 56.4406 62.0168 20.1951 
539 1 57.8346 60.6227 18.8011 
540 1 59.2287 62.0168 20.1951 
541 1 60.6227 60.6227 18.8011 
542 1 62.0168 62.0168 20.1951 
543 1 63.4108 60.6227 18.8011 
544 1 64.8049 62.0168 20.1951 
545 1 18.8011 63.4108 18.8011 
546 1 20.1951 64.8049 20.1951 
547 1 21.5892 63.4108 18.8011 
548 1 22.9832 64.8049 20.1951 
549 1 24.3773 63.4108 18.8011 
550 1 25.7713 64.8049 20.1951 
551 1 27.1654 63.4108 18.8011 
552 1 28.5594 64.8049 20.1951 
553 1 29.9535 63.4108 18.8011 
554 1 31.3476 64.8049 20.1951 
555 1 32.7416 63.4108 18.8011 
556 1 34.1357 64.8049 20.1951 
557 1 35.5297 63.4108 18.8011 
558 1 36.9238 64.8049 20.1951 
559 1 38.3178 63.4108 18.8011 
560 1 39.7119 64.8049 20.1951 
561 1 41.1059 63.4108 18.8011 
562 1 42.5 64.8049 20.1951 
563 1 43.8941 63.4108 18.8011 
564 1 45.2881 64.8049 20.1951 
565 1 46.6822 63.4108 18.8011 
566 1 48.0762 64.8049 20.1951 
567 1 49.4703 63.4108 18.8011 
568 1 50.8643 64.8049 20.1951 
569 1 52.2584 63.4108 18.8011 
570 1 53.6524 64.8049 20.1951 
571 1 55.0465 63.4108 18.8011 
572 1 56.4406 64.8049 20.1951 
573 1 57.8346 63.4108 18.8011 
574 1 59.2287 64.8049 20.1951 
575 1 60.6227 63.4108 18.8011 
576 1 62.0168 64.8049 20.1951 
577 1 63.4108 63.4108 18.8011 
578 1 64.8049 64.8049 20.1951 
579 1 18.8011 18.8011 21.5892 
580 1 20.1951 20.1951 22.9832 
581 1 21.5892 18.8011 21.5892 
582 1 22.9832 20.1951 22.9832 
583 1 24.3773 18.8011 21.5892 
584 1 25.7713 20.1951 22.9832 
585 1 27.1654 18.8011 21.5892 
586 1 28.5594 20.1951 22.9832 
587 1 29.9535 18.8011 21.5892 
588 1 31.3476 20.1951 22.9832 
589 1 32.7416 18.8011 21.5892 
590 1 34.1357 20.1951 22.9832 
591 1 35.5297 18.8011 21.5892 
592 1 36.9238 20.1951 22.9832 
593 1 38.3178 18.8011 21.5892 
594 1 39.7119 20.1951 22.9832 
595 1 41.1059 18.8011 21.5892 
596 1 42.5 20.1951 22.9832 
597 1 43.8941 18.8011 21.5892 
598 1 45.2881 20.1951 22.9832 
599 1 46.6822 18.8011 21.5892 
600 1 48.0762 20.1951 22.9832 
601 1 49.4703 18.8011 21.5892 
602 1 50.8643 20.1951 22.9832 
603 1 52.2584 18.8011 21.5892 
604 1 53.6524 20.1951 22.9832 
605 1 55.0465 18.8011 21.5892 
606 1 56.4406 20.1951 22.9832 
607 1 57.8346 18.8011 21.5892 
608 1 59.2287 20.1951 22.9832 
609 1 60.6227 18.8011 21.5892 
610 1 62.0168 20.1951 22.9832 
611 1 63.4108 18.8011 21.5892 
612 1 64.8049 20.1951 22.9832 
613 1 18.8011 21.5892 21.5892 
614 1 20.1951 22.9832 22.9832 
615 1 21.5892 21.5892 21.5892 
616 1 22.9832 22.9832 22.9832 
617 1 24.3773 21.5892 21.5892 
618 1 25.7713 22.9832 22.9832 
619 1 27.1654 21.5892 21.5892 
620 1 28.5594 22.9832 22.9832 
621 1 29.9535 21.5892 21.5892 
622 1 31.3476 22.9832 22.9832 
623 1 32.7416 21.5892 21.5892 
624 1 34.1357 22.9832 22.9832 
625 1 35.5297 21.5892 21.5892 
626 1 36.9238 22.9832 22.9832 
627 1 38.3178 21.5892 21.5892 
628 1 39.7119 22.9832 22.9832 
629 1 41.1059 21.5892 21.5892 
630 1 42.5 22.9832 22.9832 
631 1 43.8941 21.5892 21.5892 
632 1 45.2881 22.9832 22.9832 
633 1 46.6822 21.5892 21.5892 
634 1 48.0762 22.9832 22.9832 
635 1 49.4703 21.5892 21.5892 
636 1 50.8643 22.9832 22.9832 
637 1 52.2584 21.5892 21.5892 
638 1 53.6524 22.9832 22.9832 
639 1 55.0465 21.5892 21.5892 
640 1 56.4406 22.9832 22.9832 
641 1 57.8346 21.5892 21.5892 
642 1 59.2287 22.9832 22.9832 
643 1 60.6227 21.5892 21.5892 
644 1 62.0168 22.9832 22.9832 
645 1 63.4108 21.5892 21.5892 
646 1 64.8049 22.9832 22.9832 
647 1 18.8011 24.3773 21.5892 
648 1 20.1951 25.7713 22.9832 
649 1 21.5892 24.3773 21.5892 
650 1 22.9832 25.7713 22.9832 
651 1 24.3773 24.3773 21.5892 
652 1 25.7713 25.7713 22.9832 
653 1 27.1654 24.3773 21.5892 
654 1 28.5594 25.7713 22.9832 
655 1 29.9535 24.3773 21.5892 
656 1 31.3476 25.7713 22.9832 
657 1 32.7416 24.3773 21.5892 
658 1 34.1357 25.7713 22.9832 
659 1 35.5297 24.3773 21.5892 
660 1 36.9238 25.7713 22.9832 
661 1 38.3178 24.3773 21.5892 
662 1 39.7119 25.7713 22.9832 
663 1 41.1059 24.3773 21.5892 
664 1 42.5 25.7713 22.9832 
665 1 43.8941 24.3773 21.5892 
666 1 45.2881 25.7713 22.9832 
667 1 46.6822 24.3773 21.5892 
668 1 48.0762 25.7713 22.9832 
669 1 49.4703 24.3773 21.5892 
670 1 50.8643 25.7713 22.9832 
671 1 52.2584 24.3773 21.5892 
672 1 53.6524 25.7713 22.9832 
673 1 55.0465 24.3773 21.5892 
674 1 56.4406 25.7713 22.9832 
675 1 57.8346 24.3773 21.5892 
676 1 59.2287 25.7713 22.9832 
677 1 60.6227 24.3773 21.5892 
678 1 62.0168 25.7713 22.9832 
679 1 63.4108 24.3773 21.5892 
680 1 64.8049 25.7713 22.9832 
681 1 18.8011 27.1654 21.5892 
682 1 20.1951 28.5594 22.9832 
683 1 21.5892 27.1654 21.5892 
684 1 22.9832 28.5594 22.9832 
685 1 24.3773 27.1654 21.5892 
686 1 25.7713 28.5594 22.9832 
687 1 27.1654 27.1654 21.5892 
688 1 28.5594 28.5594 22.9832 
689 1 29.9535 27.1654 21.5892 
690 1 31.3476 28.5594 22.9832 
691 1 32.7416 27.1654 21.5892 
692 1 34.1357 28.5594 22.9832 
693 1 35.5297 27.1654 21.5892 
694 1 36.9238 28.5594 22.9832 
695 1 38.3178 27.1654 21.5892 
696 1 39.7119 28.5594 22.9832 
697 1 41.1059 27.1654 21.5892 
698 1 42.5 28.5594 22.9832 
699 1 43.8941 27.1654 21.5892 
700 1 45.2881 28.5594 22.9832 
701 1 46.6822 27.1654 21.5892 
702 1 48.0762 28.5594 22.9832 
703 1 49.4703 27.1654 21.5892 
704 1 50.8643 28.5594 22.9832 
705 1 52.2584 27.1654 21.5892 
706 1 53.6524 28.5594 22.9832 
707 1 55.0465 27.1654 21.5892 
708 1 56.4406 28.5594 22.9832 
709 1 57.8346 27.1654 21.5892 
710 1 59.2287 28.5594 22.9832 
711 1 60.6227 27.1654 21.5892 
712 1 62.0168 28.5594 22.9832 
713 1 63.4108 27.1654 21.5892 
714 1 64.8049 28.5594 22.9832 
715 1 18.8011 29.9535 21.5892 
716 1 20.1951 31.3476 22.9832 
717 1 21.5892 29.9535 21.5892 
718 1 22.9832 31.3476 22.9832 
719 1 24.3773 29.9535 21.5892 
720 1 25.7713 31.3476 22.9832 
721 1 27.1654 29.9535 21.5892 
722 1 28.5594 31.3476 22.9832 
723 1 29.9535 29.9535 21.5892 
724 1 31.3476 31.3476 22.9832 
725 1 32.7416 29.9535 21.5892 
726 1 34.1357 31.3476 22.9832 
727 1 35.5297 29.9535 21.5892 
728 1 36.9238 31.3476 22.9832 
729 1 38.3178 29.9535 21.5892 
730 1 39.7119 31.3476 22.9832 
731 1 41.1059 29.9535 21.5892 
732 1 42.5 31.3476 22.9832 
733 1 43.8941 29.9535 21.5892 
734 1 45.2881 31.3476 22.9832 
735 1 46.6822 29.9535 21.5892 
736 1 48.0762 31.3476 22.9832 
737 1 49.4703 29.9535 21.5892 
738 1 50.8643 31.3476 22.9832 
739 1 52.2584 29.9535 21.5892 
740 1 53.6524 31.3476 22.9832 
741 1 55.0465 29.9535 21.5892 
742 1 56.4406 31.3476 22.9832 
743 1 57.8346 29.9535 21.5892 
744 1 59.2287 31.3476 22.9832 
745 1 60.6227 29.9535 21.5892 
746 1 62.0168 31.3476 22.9832 
747 1 63.4108 29.9535 21.5892 
748 1 64.8049 31.3476 22.9832 
749 1 18.8011 32.7416 21.5892 
750 1 20.1951 34.1357 22.9832 
751 1 21.5892 32.7416 21.5892 
752 1 22.9832 34.1357 22.9832 
753 1 24.3773 32.7416 21.5892 
754 1 25.7713 34.1357 22.9832 
755 1 27.1654 32.7416 21.5892 
756 1 28.5594 34.1357 22.9832 
757 1 29.9535 32.7416 21.5892 
758 1 31.3476 34.1357 22.9832 
759 1 32.7416 32.7416 21.5892 
760 1 34.1357 34.1357 22.9832 
761 1 35.5297 32.7416 21.5892 
762 1 36.9238 34.1357 22.9832 
763 1 38.3178 32.7416 21.5892 
764 1 39.7119 34.1357 22.9832 
765 1 41.1059 32.7416 21.5892 
766 1 42.5 34.1357 22.9832 
767 1 43.8941 32.7416 21.5892 
768 1 45.2881 34.1357 22.9832 
769 1 46.6822 32.7416 21.5892 
770 1 48.0762 34.1357 22.9832 
771 1 49.4703 32.7416 21.5892 
772 1 50.8643 34.1357 22.9832 
773 1 52.2584 32.7416 21.5892 
774 1 53.6524 34.1357 22.9832 
775 1 55.0465 32.7416 21.5892 
776 1 56.4406 34.1357 22.9832 
777 1 57.8346 32.7416 21.5892 
778 1 59.2287 34.1357 22.9832 
779 1 60.6227 32.7416 21.5892 
780 1 62.0168 34.1357 22.9832 
781 1 63.4108 32.7416 21.5892 
782 1 64.8049 34.1357 22.9832 
783 1 18.8011 35.5297 21.5892 
784 1 20.1951 36.9238 22.9832 
785 1 21.5892 35.5297 21.5892 
786 1 22.9832 36.9238 22.9832 
787 1 24.3773 35.5297 21.5892 
788 1 25.7713 36.9238 22.9832 
789 1 27.1654 35.5297 21.5892 
790 1 28.5594 36.9238 22.9832 
791 1 29.9535 35.5297 21.5892 
792 1 31.3476 36.9238 22.9832 
793 1 32.7416 35.5297 21.5892 
794 1 34.1357 36.9238 22.9832 
795 1 35.5297 35.5297 21.5892 
796 1 36.9238 36.9238 22.9832 
797 1 38.3178 35.5297 21.5892 
798 1 39.7119 36.9238 22.9832 
799 1 41.1059 35.5297 21.5892 
800 1 42.5 36.9238 22.9832 
801 1 43.8941 35.5297 21.5892 
802 1 45.2881 36.9238 22.9832 
803 1 46.6822 35.5297 21.5892 
804 1 48.0762 36.9238 22.9832 
805 1 49.4703 35.5297 21.5892 
806 1 50.8643 36.9238 22.9832 
807 1 52.2584 35.5297 21.5892 
808 1 53.6524 36.9238 22.9832 
809 1 55.0465 35.5297 21.5892 
810 1 56.4406 36.9238 22.9832 
811 1 57.8346 35.5297 21.5892 
812 1 59.2287 36.9238 22.9832 
813 1 60.6227 35.5297 21.5892 
814 1 62.0168 36.9238 22.9832 
815 1 63.4108 35.5297 21.5892 
816 1 64.8049 36.9238 22.9832 
817 1 18.8011 38.3178 21.5892 
818 1 20.1951 39.7119 22.9832 
819 1 21.5892 38.3178 21.5892 
820 1 22.9832 39.7119 22.9832 
821 1 24.3773 38.3178 21.5892 
822 1 25.7713 39.7119 22.9832 
823 1 27.1654 38.3178 21.5892 
824 1 28.5594 39.7119 22.9832 
825 1 29.9535 38.3178 21.5892 
826 1 31.3476 39.7119 22.9832 
827 1 32.7416 38.3178 21.5892 
828 1 34.1357 39.7119 22.9832 
829 1 35.5297 38.3178 21.5892 
830 1 36.9238 39.7119 22.9832 
831 1 38.3178 38.3178 21.5892 
832 1 39.7119 39.7119 22.9832 
833 1 41.1059 38.3178 21.5892 
834 1 42.5 39.7119 22.9832 
835 1 43.8941 38.3178 21.5892 
836 1 45.2881 39.7119 22.9832 
837 1 46.6822 38.3178 21.5892 
838 1 48.0762 39.7119 22.9832 
839 1 49.4703 38.3178 21.5892 
840 1 50.8643 39.7119 22.9832 
841 1 52.2584 38.3178 21.5892 
842 1 53.6524 39.7119 22.9832 
843 1 55.0465 38.3178 21.5892 
844 1 56.4406 39.7119 22.9832 
845 1 57.8346 38.3178 21.5892 
846 1 59.2287 39.7119 22.9832 
847 1 60.6227 38.3178 21.5892 
848 1 62.0168 39.7119 22.9832 
849 1 63.4108 38.3178 21.5892 
850 1 64.8049 39.7119 22.9832 
851 1 18.8011 41.1059 21.5892 
852 1 20.1951 42.5 22.9832 
853 1 21.5892 41.1059 21.5892 
854 1 22.9832 42.5 22.9832 
855 1 24.3773 41.1059 21.5892 
856 1 25.7713 42.5 22.9832 
857 1 27.1654 41.1059 21.5892 
858 1 28.5594 42.5 22.9832 
859 1 29.9535 41.1059 21.5892 
860 1 31.3476 42.5 22.9832 
861 1 32.7416 41.1059 21.5892 
862 1 34.1357 42.5 22.9832 
863 1 35.5297 41.1059 21.5892 
864 1 36.9238 42.5 22.9832 
865 1 38.3178 41.1059 21.5892 
866 1 39.7119 42.5 22.9832 
867 1 41.1059 41.1059 21.5892 
868 1 42.5 42.5 22.9832 
869 1 43.8941 41.1059 21.5892 
870 1 45.2881 42.5 22.9832 
871 1 46.6822 41.1059 21.5892 
872 1 48.0762 42.5 22.9832 
873 1 49.4703 41.1059 21.5892 
874 1 50.8643 42.5 22.9832 
875 1 52.2584 41.1059 21.5892 
876 1 53.6524 42.5 22.9832 
877 1 55.0465 41.1059 21.5892 
878 1 56.4406 42.5 22.9832 
879 1 57.8346 41.1059 21.5892 
880 1 59.2287 42.5 22.9832 
881 1 60.6227 41.1059 21.5892 
882 1 62.0168 42.5 22.9832 
883 1 63.4108 41.1059 21.5892 
884 1 64.8049 42.5 22.9832 
885 1 18.8011 43.8941 21.5892 
886 1 20.1951 45.2881 22.9832 
887 1 21.5892 43.8941 21.5892 
888 1 22.9832 45.2881 22.9832 
889 1 24.3773 43.8941 21.5892 
890 1 25.7713 45.2881 22.9832 
891 1 27.1654 43.8941 21.5892 
892 1 28.5594 45.2881 22.9832 
893 1 29.9535 43.8941 21.5892 
894 1 31.3476 45.2881 22.9832 
895 1 32.7416 43.8941 21.5892 
896 1 34.1357 45.2881 22.9832 
897 1 35.5297 43.8941 21.5892 
898 1 36.9238 45.2881 22.9832 
899 1 38.3178 43.8941 21.5892 
900 1 39.7119 45.2881 22.9832 
901 1 41.1059 43.8941 21.5892 
902 1 42.5 45.2881 22.9832 
903 1 43.8941 43.8941 21.5892 
904 1 45.2881 45.2881 22.9832 
905 1 46.6822 43.8941 21.5892 
906 1 48.0762 45.2881 22.9832 
907 1 49.4703 43.8941 21.5892 
908 1 50.8643 45.2881 22.9832 
909 1 52.2584 43.8941 21.5892 
910 1 53.6524 45.2881 22.9832 
911 1 55.0465 43.8941 21.5892 
912 1 56.4406 45.2881 22.9832 
913 1 57.8346 43.8941 21.5892 
914 1 59.2287 45.2881 22.9832 
915 1 60.6227 43.8941 21.5892 
916 1 62.0168 45.2881 22.9832 
917 1 63.4108 43.8941 21.5892 
918 1 64.8049 45.2881 22.9832 
919 1 18.8011 46.6822 21.5892 
920 1 20.1951 48.0762 22.9832 
921 1 21.5892 46.6822 21.5892 
922 1 22.9832 48.0762 22.9832 
923 1 24.3773 46.6822 21.5892 
924 1 25.7713 48.0762 22.9832 
925 1 27.1654 46.6822 21.5892 
926 1 28.5594 48.0762 22.9832 
927 1 29.9535 46.6822 21.5892 
928 1 31.3476 48.0762 22.9832 
929 1 32.7416 46.6822 21.5892 
930 1 34.1357 48.0762 22.9832 
931 1 35.5297 46.6822 21.5892 
932 1 36.9238 48.0762 22.9832 
933 1 38.3178 46.6822 21.5892 
934 1 39.7119 48.0762 22.9832 
935 1 41.1059 46.6822 21.5892 
936 1 42.5 48.0762 22.9832 
937 1 43.8941 46.6822 21.5892 
938 1 45.2881 48.0762 22.9832 
939 1 46.6822 46.6822 21.5892 
940 1 48.0762 48.0762 22.9832 
941 1 49.4703 46.6822 21.5892 
942 1 50.8643 48.0762 22.9832 
943 1 52.2584 46.6822 21.5892 
944 1 53.6524 48.0762 22.9832 
945 1 55.0465 46.6822 21.5892 
946 1 56.4406 48.0762 22.9832 
947 1 57.8346 46.6822 21.5892 
948 1 59.2287 48.0762 22.9832 
949 1 60.6227 46.6822 21.5892 
950 1 62.0168 48.0762 22.9832 
951 1 63.4108 46.6822 21.5892 
952 1 64.8049 48.0762 22.9832 
953 1 18.8011 49.4703 21.5892 
954 1 20.1951 50.8643 22.9832 
955 1 21.5892 49.4703 21.5892 
956 1 22.9832 50.8643 22.9832 
957 1 24.3773 49.4703 21.5892 
958 1 25.7713 50.8643 22.9832 
959 1 27.1654 49.4703 21.5892 
960 1 28.5594 50.8643 22.9832 
961 1 29.9535 49.4703 21.5892 
962 1 31.3476 50.8643 22.9832 
963 1 32.7416 49.4703 21.5892 
964 1 34.1357 50.8643 22.9832 
965 1 35.5297 49.4703 21.5892 
966 1 36.9238 50.8643 22.9832 
967 1 38.3178 49.4703 21.5892 
968 1 39.7119 50.8643 22.9832 
969 1 41.1059 49.4703 21.5892 