ITEM: TIMESTEP
41
ITEM: NUMBER OF ATOMS
19652
ITEM: BOX BOUNDS pp pp pp
8.2861423137883445e+00 7.6713857686211455e+01
8.2861423137883445e+00 7.6713857686211455e+01
8.2861423137883445e+00 7.6713857686211455e+01
ITEM: ATOMS id type xu yu zu 
1 2 8.28614 8.28614 8.28614 
2 2 10.2987 10.2987 8.28614 
3 2 10.2987 8.28614 10.2987 
4 2 8.28614 10.2987 10.2987 
5 2 12.3113 8.28614 8.28614 
6 2 14.3239 10.2987 8.28614 
7 2 14.3239 8.28614 10.2987 
8 2 12.3113 10.2987 10.2987 
9 2 16.3365 8.28614 8.28614 
10 2 18.349 10.2987 8.28614 
11 2 18.349 8.28614 10.2987 
12 2 16.3365 10.2987 10.2987 
13 2 20.3616 8.28614 8.28614 
14 2 22.3742 10.2987 8.28614 
15 2 22.3742 8.28614 10.2987 
16 2 20.3616 10.2987 10.2987 
17 2 24.3868 8.28614 8.28614 
18 2 26.3994 10.2987 8.28614 
19 2 26.3994 8.28614 10.2987 
20 2 24.3868 10.2987 10.2987 
21 2 28.4119 8.28614 8.28614 
22 2 30.4245 10.2987 8.28614 
23 2 30.4245 8.28614 10.2987 
24 2 28.4119 10.2987 10.2987 
25 2 32.4371 8.28614 8.28614 
26 2 34.4497 10.2987 8.28614 
27 2 34.4497 8.28614 10.2987 
28 2 32.4371 10.2987 10.2987 
29 2 36.4623 8.28614 8.28614 
30 2 38.4748 10.2987 8.28614 
31 2 38.4748 8.28614 10.2987 
32 2 36.4623 10.2987 10.2987 
33 2 40.4874 8.28614 8.28614 
34 2 42.5 10.2987 8.28614 
35 2 42.5 8.28614 10.2987 
36 2 40.4874 10.2987 10.2987 
37 2 44.5126 8.28614 8.28614 
38 2 46.5252 10.2987 8.28614 
39 2 46.5252 8.28614 10.2987 
40 2 44.5126 10.2987 10.2987 
41 2 48.5377 8.28614 8.28614 
42 2 50.5503 10.2987 8.28614 
43 2 50.5503 8.28614 10.2987 
44 2 48.5377 10.2987 10.2987 
45 2 52.5629 8.28614 8.28614 
46 2 54.5755 10.2987 8.28614 
47 2 54.5755 8.28614 10.2987 
48 2 52.5629 10.2987 10.2987 
49 2 56.5881 8.28614 8.28614 
50 2 58.6006 10.2987 8.28614 
51 2 58.6006 8.28614 10.2987 
52 2 56.5881 10.2987 10.2987 
53 2 60.6132 8.28614 8.28614 
54 2 62.6258 10.2987 8.28614 
55 2 62.6258 8.28614 10.2987 
56 2 60.6132 10.2987 10.2987 
57 2 64.6384 8.28614 8.28614 
58 2 66.651 10.2987 8.28614 
59 2 66.651 8.28614 10.2987 
60 2 64.6384 10.2987 10.2987 
61 2 68.6635 8.28614 8.28614 
62 2 70.6761 10.2987 8.28614 
63 2 70.6761 8.28614 10.2987 
64 2 68.6635 10.2987 10.2987 
65 2 72.6887 8.28614 8.28614 
66 2 74.7013 10.2987 8.28614 
67 2 74.7013 8.28614 10.2987 
68 2 72.6887 10.2987 10.2987 
69 2 8.28614 12.3113 8.28614 
70 2 10.2987 14.3239 8.28614 
71 2 10.2987 12.3113 10.2987 
72 2 8.28614 14.3239 10.2987 
73 2 12.3113 12.3113 8.28614 
74 2 14.3239 14.3239 8.28614 
75 2 14.3239 12.3113 10.2987 
76 2 12.3113 14.3239 10.2987 
77 2 16.3365 12.3113 8.28614 
78 2 18.349 14.3239 8.28614 
79 2 18.349 12.3113 10.2987 
80 2 16.3365 14.3239 10.2987 
81 2 20.3616 12.3113 8.28614 
82 2 22.3742 14.3239 8.28614 
83 2 22.3742 12.3113 10.2987 
84 2 20.3616 14.3239 10.2987 
85 2 24.3868 12.3113 8.28614 
86 2 26.3994 14.3239 8.28614 
87 2 26.3994 12.3113 10.2987 
88 2 24.3868 14.3239 10.2987 
89 2 28.4119 12.3113 8.28614 
90 2 30.4245 14.3239 8.28614 
91 2 30.4245 12.3113 10.2987 
92 2 28.4119 14.3239 10.2987 
93 2 32.4371 12.3113 8.28614 
94 2 34.4497 14.3239 8.28614 
95 2 34.4497 12.3113 10.2987 
96 2 32.4371 14.3239 10.2987 
97 2 36.4623 12.3113 8.28614 
98 2 38.4748 14.3239 8.28614 
99 2 38.4748 12.3113 10.2987 
100 2 36.4623 14.3239 10.2987 
101 2 40.4874 12.3113 8.28614 
102 2 42.5 14.3239 8.28614 
103 2 42.5 12.3113 10.2987 
104 2 40.4874 14.3239 10.2987 
105 2 44.5126 12.3113 8.28614 
106 2 46.5252 14.3239 8.28614 
107 2 46.5252 12.3113 10.2987 
108 2 44.5126 14.3239 10.2987 
109 2 48.5377 12.3113 8.28614 
110 2 50.5503 14.3239 8.28614 
111 2 50.5503 12.3113 10.2987 
112 2 48.5377 14.3239 10.2987 
113 2 52.5629 12.3113 8.28614 
114 2 54.5755 14.3239 8.28614 
115 2 54.5755 12.3113 10.2987 
116 2 52.5629 14.3239 10.2987 
117 2 56.5881 12.3113 8.28614 
118 2 58.6006 14.3239 8.28614 
119 2 58.6006 12.3113 10.2987 
120 2 56.5881 14.3239 10.2987 
121 2 60.6132 12.3113 8.28614 
122 2 62.6258 14.3239 8.28614 
123 2 62.6258 12.3113 10.2987 
124 2 60.6132 14.3239 10.2987 
125 2 64.6384 12.3113 8.28614 
126 2 66.651 14.3239 8.28614 
127 2 66.651 12.3113 10.2987 
128 2 64.6384 14.3239 10.2987 
129 2 68.6635 12.3113 8.28614 
130 2 70.6761 14.3239 8.28614 
131 2 70.6761 12.3113 10.2987 
132 2 68.6635 14.3239 10.2987 
133 2 72.6887 12.3113 8.28614 
134 2 74.7013 14.3239 8.28614 
135 2 74.7013 12.3113 10.2987 
136 2 72.6887 14.3239 10.2987 
137 2 8.28614 16.3365 8.28614 
138 2 10.2987 18.349 8.28614 
139 2 10.2987 16.3365 10.2987 
140 2 8.28614 18.349 10.2987 
141 2 12.3113 16.3365 8.28614 
142 2 14.3239 18.349 8.28614 
143 2 14.3239 16.3365 10.2987 
144 2 12.3113 18.349 10.2987 
145 2 16.3365 16.3365 8.28614 
146 2 18.349 18.349 8.28614 
147 2 18.349 16.3365 10.2987 
148 2 16.3365 18.349 10.2987 
149 2 20.3616 16.3365 8.28614 
150 2 22.3742 18.349 8.28614 
151 2 22.3742 16.3365 10.2987 
152 2 20.3616 18.349 10.2987 
153 2 24.3868 16.3365 8.28614 
154 2 26.3994 18.349 8.28614 
155 2 26.3994 16.3365 10.2987 
156 2 24.3868 18.349 10.2987 
157 2 28.4119 16.3365 8.28614 
158 2 30.4245 18.349 8.28614 
159 2 30.4245 16.3365 10.2987 
160 2 28.4119 18.349 10.2987 
161 2 32.4371 16.3365 8.28614 
162 2 34.4497 18.349 8.28614 
163 2 34.4497 16.3365 10.2987 
164 2 32.4371 18.349 10.2987 
165 2 36.4623 16.3365 8.28614 
166 2 38.4748 18.349 8.28614 
167 2 38.4748 16.3365 10.2987 
168 2 36.4623 18.349 10.2987 
169 2 40.4874 16.3365 8.28614 
170 2 42.5 18.349 8.28614 
171 2 42.5 16.3365 10.2987 
172 2 40.4874 18.349 10.2987 
173 2 44.5126 16.3365 8.28614 
174 2 46.5252 18.349 8.28614 
175 2 46.5252 16.3365 10.2987 
176 2 44.5126 18.349 10.2987 
177 2 48.5377 16.3365 8.28614 
178 2 50.5503 18.349 8.28614 
179 2 50.5503 16.3365 10.2987 
180 2 48.5377 18.349 10.2987 
181 2 52.5629 16.3365 8.28614 
182 2 54.5755 18.349 8.28614 
183 2 54.5755 16.3365 10.2987 
184 2 52.5629 18.349 10.2987 
185 2 56.5881 16.3365 8.28614 
186 2 58.6006 18.349 8.28614 
187 2 58.6006 16.3365 10.2987 
188 2 56.5881 18.349 10.2987 
189 2 60.6132 16.3365 8.28614 
190 2 62.6258 18.349 8.28614 
191 2 62.6258 16.3365 10.2987 
192 2 60.6132 18.349 10.2987 
193 2 64.6384 16.3365 8.28614 
194 2 66.651 18.349 8.28614 
195 2 66.651 16.3365 10.2987 
196 2 64.6384 18.349 10.2987 
197 2 68.6635 16.3365 8.28614 
198 2 70.6761 18.349 8.28614 
199 2 70.6761 16.3365 10.2987 
200 2 68.6635 18.349 10.2987 
201 2 72.6887 16.3365 8.28614 
202 2 74.7013 18.349 8.28614 
203 2 74.7013 16.3365 10.2987 
204 2 72.6887 18.349 10.2987 
205 2 8.28614 20.3616 8.28614 
206 2 10.2987 22.3742 8.28614 
207 2 10.2987 20.3616 10.2987 
208 2 8.28614 22.3742 10.2987 
209 2 12.3113 20.3616 8.28614 
210 2 14.3239 22.3742 8.28614 
211 2 14.3239 20.3616 10.2987 
212 2 12.3113 22.3742 10.2987 
213 2 16.3365 20.3616 8.28614 
214 2 18.349 22.3742 8.28614 
215 2 18.349 20.3616 10.2987 
216 2 16.3365 22.3742 10.2987 
217 2 20.3616 20.3616 8.28614 
218 2 22.3742 22.3742 8.28614 
219 2 22.3742 20.3616 10.2987 
220 2 20.3616 22.3742 10.2987 
221 2 24.3868 20.3616 8.28614 
222 2 26.3994 22.3742 8.28614 
223 2 26.3994 20.3616 10.2987 
224 2 24.3868 22.3742 10.2987 
225 2 28.4119 20.3616 8.28614 
226 2 30.4245 22.3742 8.28614 
227 2 30.4245 20.3616 10.2987 
228 2 28.4119 22.3742 10.2987 
229 2 32.4371 20.3616 8.28614 
230 2 34.4497 22.3742 8.28614 
231 2 34.4497 20.3616 10.2987 
232 2 32.4371 22.3742 10.2987 
233 2 36.4623 20.3616 8.28614 
234 2 38.4748 22.3742 8.28614 
235 2 38.4748 20.3616 10.2987 
236 2 36.4623 22.3742 10.2987 
237 2 40.4874 20.3616 8.28614 
238 2 42.5 22.3742 8.28614 
239 2 42.5 20.3616 10.2987 
240 2 40.4874 22.3742 10.2987 
241 2 44.5126 20.3616 8.28614 
242 2 46.5252 22.3742 8.28614 
243 2 46.5252 20.3616 10.2987 
244 2 44.5126 22.3742 10.2987 
245 2 48.5377 20.3616 8.28614 
246 2 50.5503 22.3742 8.28614 
247 2 50.5503 20.3616 10.2987 
248 2 48.5377 22.3742 10.2987 
249 2 52.5629 20.3616 8.28614 
250 2 54.5755 22.3742 8.28614 
251 2 54.5755 20.3616 10.2987 
252 2 52.5629 22.3742 10.2987 
253 2 56.5881 20.3616 8.28614 
254 2 58.6006 22.3742 8.28614 
255 2 58.6006 20.3616 10.2987 
256 2 56.5881 22.3742 10.2987 
257 2 60.6132 20.3616 8.28614 
258 2 62.6258 22.3742 8.28614 
259 2 62.6258 20.3616 10.2987 
260 2 60.6132 22.3742 10.2987 
261 2 64.6384 20.3616 8.28614 
262 2 66.651 22.3742 8.28614 
263 2 66.651 20.3616 10.2987 
264 2 64.6384 22.3742 10.2987 
265 2 68.6635 20.3616 8.28614 
266 2 70.6761 22.3742 8.28614 
267 2 70.6761 20.3616 10.2987 
268 2 68.6635 22.3742 10.2987 
269 2 72.6887 20.3616 8.28614 
270 2 74.7013 22.3742 8.28614 
271 2 74.7013 20.3616 10.2987 
272 2 72.6887 22.3742 10.2987 
273 2 8.28614 24.3868 8.28614 
274 2 10.2987 26.3994 8.28614 
275 2 10.2987 24.3868 10.2987 
276 2 8.28614 26.3994 10.2987 
277 2 12.3113 24.3868 8.28614 
278 2 14.3239 26.3994 8.28614 
279 2 14.3239 24.3868 10.2987 
280 2 12.3113 26.3994 10.2987 
281 2 16.3365 24.3868 8.28614 
282 2 18.349 26.3994 8.28614 
283 2 18.349 24.3868 10.2987 
284 2 16.3365 26.3994 10.2987 
285 2 20.3616 24.3868 8.28614 
286 2 22.3742 26.3994 8.28614 
287 2 22.3742 24.3868 10.2987 
288 2 20.3616 26.3994 10.2987 
289 2 24.3868 24.3868 8.28614 
290 2 26.3994 26.3994 8.28614 
291 2 26.3994 24.3868 10.2987 
292 2 24.3868 26.3994 10.2987 
293 2 28.4119 24.3868 8.28614 
294 2 30.4245 26.3994 8.28614 
295 2 30.4245 24.3868 10.2987 
296 2 28.4119 26.3994 10.2987 
297 2 32.4371 24.3868 8.28614 
298 2 34.4497 26.3994 8.28614 
299 2 34.4497 24.3868 10.2987 
300 2 32.4371 26.3994 10.2987 
301 2 36.4623 24.3868 8.28614 
302 2 38.4748 26.3994 8.28614 
303 2 38.4748 24.3868 10.2987 
304 2 36.4623 26.3994 10.2987 
305 2 40.4874 24.3868 8.28614 
306 2 42.5 26.3994 8.28614 
307 2 42.5 24.3868 10.2987 
308 2 40.4874 26.3994 10.2987 
309 2 44.5126 24.3868 8.28614 
310 2 46.5252 26.3994 8.28614 
311 2 46.5252 24.3868 10.2987 
312 2 44.5126 26.3994 10.2987 
313 2 48.5377 24.3868 8.28614 
314 2 50.5503 26.3994 8.28614 
315 2 50.5503 24.3868 10.2987 
316 2 48.5377 26.3994 10.2987 
317 2 52.5629 24.3868 8.28614 
318 2 54.5755 26.3994 8.28614 
319 2 54.5755 24.3868 10.2987 
320 2 52.5629 26.3994 10.2987 
321 2 56.5881 24.3868 8.28614 
322 2 58.6006 26.3994 8.28614 
323 2 58.6006 24.3868 10.2987 
324 2 56.5881 26.3994 10.2987 
325 2 60.6132 24.3868 8.28614 
326 2 62.6258 26.3994 8.28614 
327 2 62.6258 24.3868 10.2987 
328 2 60.6132 26.3994 10.2987 
329 2 64.6384 24.3868 8.28614 
330 2 66.651 26.3994 8.28614 
331 2 66.651 24.3868 10.2987 
332 2 64.6384 26.3994 10.2987 
333 2 68.6635 24.3868 8.28614 
334 2 70.6761 26.3994 8.28614 
335 2 70.6761 24.3868 10.2987 
336 2 68.6635 26.3994 10.2987 
337 2 72.6887 24.3868 8.28614 
338 2 74.7013 26.3994 8.28614 
339 2 74.7013 24.3868 10.2987 
340 2 72.6887 26.3994 10.2987 
341 2 8.28614 28.4119 8.28614 
342 2 10.2987 30.4245 8.28614 
343 2 10.2987 28.4119 10.2987 
344 2 8.28614 30.4245 10.2987 
345 2 12.3113 28.4119 8.28614 
346 2 14.3239 30.4245 8.28614 
347 2 14.3239 28.4119 10.2987 
348 2 12.3113 30.4245 10.2987 
349 2 16.3365 28.4119 8.28614 
350 2 18.349 30.4245 8.28614 
351 2 18.349 28.4119 10.2987 
352 2 16.3365 30.4245 10.2987 
353 2 20.3616 28.4119 8.28614 
354 2 22.3742 30.4245 8.28614 
355 2 22.3742 28.4119 10.2987 
356 2 20.3616 30.4245 10.2987 
357 2 24.3868 28.4119 8.28614 
358 2 26.3994 30.4245 8.28614 
359 2 26.3994 28.4119 10.2987 
360 2 24.3868 30.4245 10.2987 
361 2 28.4119 28.4119 8.28614 
362 2 30.4245 30.4245 8.28614 
363 2 30.4245 28.4119 10.2987 
364 2 28.4119 30.4245 10.2987 
365 2 32.4371 28.4119 8.28614 
366 2 34.4497 30.4245 8.28614 
367 2 34.4497 28.4119 10.2987 
368 2 32.4371 30.4245 10.2987 
369 2 36.4623 28.4119 8.28614 
370 2 38.4748 30.4245 8.28614 
371 2 38.4748 28.4119 10.2987 
372 2 36.4623 30.4245 10.2987 
373 2 40.4874 28.4119 8.28614 
374 2 42.5 30.4245 8.28614 
375 2 42.5 28.4119 10.2987 
376 2 40.4874 30.4245 10.2987 
377 2 44.5126 28.4119 8.28614 
378 2 46.5252 30.4245 8.28614 
379 2 46.5252 28.4119 10.2987 
380 2 44.5126 30.4245 10.2987 
381 2 48.5377 28.4119 8.28614 
382 2 50.5503 30.4245 8.28614 
383 2 50.5503 28.4119 10.2987 
384 2 48.5377 30.4245 10.2987 
385 2 52.5629 28.4119 8.28614 
386 2 54.5755 30.4245 8.28614 
387 2 54.5755 28.4119 10.2987 
388 2 52.5629 30.4245 10.2987 
389 2 56.5881 28.4119 8.28614 
390 2 58.6006 30.4245 8.28614 
391 2 58.6006 28.4119 10.2987 
392 2 56.5881 30.4245 10.2987 
393 2 60.6132 28.4119 8.28614 
394 2 62.6258 30.4245 8.28614 
395 2 62.6258 28.4119 10.2987 
396 2 60.6132 30.4245 10.2987 
397 2 64.6384 28.4119 8.28614 
398 2 66.651 30.4245 8.28614 
399 2 66.651 28.4119 10.2987 
400 2 64.6384 30.4245 10.2987 
401 2 68.6635 28.4119 8.28614 
402 2 70.6761 30.4245 8.28614 
403 2 70.6761 28.4119 10.2987 
404 2 68.6635 30.4245 10.2987 
405 2 72.6887 28.4119 8.28614 
406 2 74.7013 30.4245 8.28614 
407 2 74.7013 28.4119 10.2987 
408 2 72.6887 30.4245 10.2987 
409 2 8.28614 32.4371 8.28614 
410 2 10.2987 34.4497 8.28614 
411 2 10.2987 32.4371 10.2987 
412 2 8.28614 34.4497 10.2987 
413 2 12.3113 32.4371 8.28614 
414 2 14.3239 34.4497 8.28614 
415 2 14.3239 32.4371 10.2987 
416 2 12.3113 34.4497 10.2987 
417 2 16.3365 32.4371 8.28614 
418 2 18.349 34.4497 8.28614 
419 2 18.349 32.4371 10.2987 
420 2 16.3365 34.4497 10.2987 
421 2 20.3616 32.4371 8.28614 
422 2 22.3742 34.4497 8.28614 
423 2 22.3742 32.4371 10.2987 
424 2 20.3616 34.4497 10.2987 
425 2 24.3868 32.4371 8.28614 
426 2 26.3994 34.4497 8.28614 
427 2 26.3994 32.4371 10.2987 
428 2 24.3868 34.4497 10.2987 
429 2 28.4119 32.4371 8.28614 
430 2 30.4245 34.4497 8.28614 
431 2 30.4245 32.4371 10.2987 
432 2 28.4119 34.4497 10.2987 
433 2 32.4371 32.4371 8.28614 
434 2 34.4497 34.4497 8.28614 
435 2 34.4497 32.4371 10.2987 
436 2 32.4371 34.4497 10.2987 
437 2 36.4623 32.4371 8.28614 
438 2 38.4748 34.4497 8.28614 
439 2 38.4748 32.4371 10.2987 
440 2 36.4623 34.4497 10.2987 
441 2 40.4874 32.4371 8.28614 
442 2 42.5 34.4497 8.28614 
443 2 42.5 32.4371 10.2987 
444 2 40.4874 34.4497 10.2987 
445 2 44.5126 32.4371 8.28614 
446 2 46.5252 34.4497 8.28614 
447 2 46.5252 32.4371 10.2987 
448 2 44.5126 34.4497 10.2987 
449 2 48.5377 32.4371 8.28614 
450 2 50.5503 34.4497 8.28614 
451 2 50.5503 32.4371 10.2987 
452 2 48.5377 34.4497 10.2987 
453 2 52.5629 32.4371 8.28614 
454 2 54.5755 34.4497 8.28614 
455 2 54.5755 32.4371 10.2987 
456 2 52.5629 34.4497 10.2987 
457 2 56.5881 32.4371 8.28614 
458 2 58.6006 34.4497 8.28614 
459 2 58.6006 32.4371 10.2987 
460 2 56.5881 34.4497 10.2987 
461 2 60.6132 32.4371 8.28614 
462 2 62.6258 34.4497 8.28614 
463 2 62.6258 32.4371 10.2987 
464 2 60.6132 34.4497 10.2987 
465 2 64.6384 32.4371 8.28614 
466 2 66.651 34.4497 8.28614 
467 2 66.651 32.4371 10.2987 
468 2 64.6384 34.4497 10.2987 
469 2 68.6635 32.4371 8.28614 
470 2 70.6761 34.4497 8.28614 
471 2 70.6761 32.4371 10.2987 
472 2 68.6635 34.4497 10.2987 
473 2 72.6887 32.4371 8.28614 
474 2 74.7013 34.4497 8.28614 
475 2 74.7013 32.4371 10.2987 
476 2 72.6887 34.4497 10.2987 
477 2 8.28614 36.4623 8.28614 
478 2 10.2987 38.4748 8.28614 
479 2 10.2987 36.4623 10.2987 
480 2 8.28614 38.4748 10.2987 
481 2 12.3113 36.4623 8.28614 
482 2 14.3239 38.4748 8.28614 
483 2 14.3239 36.4623 10.2987 
484 2 12.3113 38.4748 10.2987 
485 2 16.3365 36.4623 8.28614 
486 2 18.349 38.4748 8.28614 
487 2 18.349 36.4623 10.2987 
488 2 16.3365 38.4748 10.2987 
489 2 20.3616 36.4623 8.28614 
490 2 22.3742 38.4748 8.28614 
491 2 22.3742 36.4623 10.2987 
492 2 20.3616 38.4748 10.2987 
493 2 24.3868 36.4623 8.28614 
494 2 26.3994 38.4748 8.28614 
495 2 26.3994 36.4623 10.2987 
496 2 24.3868 38.4748 10.2987 
497 2 28.4119 36.4623 8.28614 
498 2 30.4245 38.4748 8.28614 
499 2 30.4245 36.4623 10.2987 
500 2 28.4119 38.4748 10.2987 
501 2 32.4371 36.4623 8.28614 
502 2 34.4497 38.4748 8.28614 
503 2 34.4497 36.4623 10.2987 
504 2 32.4371 38.4748 10.2987 
505 2 36.4623 36.4623 8.28614 
506 2 38.4748 38.4748 8.28614 
507 2 38.4748 36.4623 10.2987 
508 2 36.4623 38.4748 10.2987 
509 2 40.4874 36.4623 8.28614 
510 2 42.5 38.4748 8.28614 
511 2 42.5 36.4623 10.2987 
512 2 40.4874 38.4748 10.2987 
513 2 44.5126 36.4623 8.28614 
514 2 46.5252 38.4748 8.28614 
515 2 46.5252 36.4623 10.2987 
516 2 44.5126 38.4748 10.2987 
517 2 48.5377 36.4623 8.28614 
518 2 50.5503 38.4748 8.28614 
519 2 50.5503 36.4623 10.2987 
520 2 48.5377 38.4748 10.2987 
521 2 52.5629 36.4623 8.28614 
522 2 54.5755 38.4748 8.28614 
523 2 54.5755 36.4623 10.2987 
524 2 52.5629 38.4748 10.2987 
525 2 56.5881 36.4623 8.28614 
526 2 58.6006 38.4748 8.28614 
527 2 58.6006 36.4623 10.2987 
528 2 56.5881 38.4748 10.2987 
529 2 60.6132 36.4623 8.28614 
530 2 62.6258 38.4748 8.28614 
531 2 62.6258 36.4623 10.2987 
532 2 60.6132 38.4748 10.2987 
533 2 64.6384 36.4623 8.28614 
534 2 66.651 38.4748 8.28614 
535 2 66.651 36.4623 10.2987 
536 2 64.6384 38.4748 10.2987 
537 2 68.6635 36.4623 8.28614 
538 2 70.6761 38.4748 8.28614 
539 2 70.6761 36.4623 10.2987 
540 2 68.6635 38.4748 10.2987 
541 2 72.6887 36.4623 8.28614 
542 2 74.7013 38.4748 8.28614 
543 2 74.7013 36.4623 10.2987 
544 2 72.6887 38.4748 10.2987 
545 2 8.28614 40.4874 8.28614 
546 2 10.2987 42.5 8.28614 
547 2 10.2987 40.4874 10.2987 
548 2 8.28614 42.5 10.2987 
549 2 12.3113 40.4874 8.28614 
550 2 14.3239 42.5 8.28614 
551 2 14.3239 40.4874 10.2987 
552 2 12.3113 42.5 10.2987 
553 2 16.3365 40.4874 8.28614 
554 2 18.349 42.5 8.28614 
555 2 18.349 40.4874 10.2987 
556 2 16.3365 42.5 10.2987 
557 2 20.3616 40.4874 8.28614 
558 2 22.3742 42.5 8.28614 
559 2 22.3742 40.4874 10.2987 
560 2 20.3616 42.5 10.2987 
561 2 24.3868 40.4874 8.28614 
562 2 26.3994 42.5 8.28614 
563 2 26.3994 40.4874 10.2987 
564 2 24.3868 42.5 10.2987 
565 2 28.4119 40.4874 8.28614 
566 2 30.4245 42.5 8.28614 
567 2 30.4245 40.4874 10.2987 
568 2 28.4119 42.5 10.2987 
569 2 32.4371 40.4874 8.28614 
570 2 34.4497 42.5 8.28614 
571 2 34.4497 40.4874 10.2987 
572 2 32.4371 42.5 10.2987 
573 2 36.4623 40.4874 8.28614 
574 2 38.4748 42.5 8.28614 
575 2 38.4748 40.4874 10.2987 
576 2 36.4623 42.5 10.2987 
577 2 40.4874 40.4874 8.28614 
578 2 42.5 42.5 8.28614 
579 2 42.5 40.4874 10.2987 
580 2 40.4874 42.5 10.2987 
581 2 44.5126 40.4874 8.28614 
582 2 46.5252 42.5 8.28614 
583 2 46.5252 40.4874 10.2987 
584 2 44.5126 42.5 10.2987 
585 2 48.5377 40.4874 8.28614 
586 2 50.5503 42.5 8.28614 
587 2 50.5503 40.4874 10.2987 
588 2 48.5377 42.5 10.2987 
589 2 52.5629 40.4874 8.28614 
590 2 54.5755 42.5 8.28614 
591 2 54.5755 40.4874 10.2987 
592 2 52.5629 42.5 10.2987 
593 2 56.5881 40.4874 8.28614 
594 2 58.6006 42.5 8.28614 
595 2 58.6006 40.4874 10.2987 
596 2 56.5881 42.5 10.2987 
597 2 60.6132 40.4874 8.28614 
598 2 62.6258 42.5 8.28614 
599 2 62.6258 40.4874 10.2987 
600 2 60.6132 42.5 10.2987 
601 2 64.6384 40.4874 8.28614 
602 2 66.651 42.5 8.28614 
603 2 66.651 40.4874 10.2987 
604 2 64.6384 42.5 10.2987 
605 2 68.6635 40.4874 8.28614 
606 2 70.6761 42.5 8.28614 
607 2 70.6761 40.4874 10.2987 
608 2 68.6635 42.5 10.2987 
609 2 72.6887 40.4874 8.28614 
610 2 74.7013 42.5 8.28614 
611 2 74.7013 40.4874 10.2987 
612 2 72.6887 42.5 10.2987 
613 2 8.28614 44.5126 8.28614 
614 2 10.2987 46.5252 8.28614 
615 2 10.2987 44.5126 10.2987 
616 2 8.28614 46.5252 10.2987 
617 2 12.3113 44.5126 8.28614 
618 2 14.3239 46.5252 8.28614 
619 2 14.3239 44.5126 10.2987 
620 2 12.3113 46.5252 10.2987 
621 2 16.3365 44.5126 8.28614 
622 2 18.349 46.5252 8.28614 
623 2 18.349 44.5126 10.2987 
624 2 16.3365 46.5252 10.2987 
625 2 20.3616 44.5126 8.28614 
626 2 22.3742 46.5252 8.28614 
627 2 22.3742 44.5126 10.2987 
628 2 20.3616 46.5252 10.2987 
629 2 24.3868 44.5126 8.28614 
630 2 26.3994 46.5252 8.28614 
631 2 26.3994 44.5126 10.2987 
632 2 24.3868 46.5252 10.2987 
633 2 28.4119 44.5126 8.28614 
634 2 30.4245 46.5252 8.28614 
635 2 30.4245 44.5126 10.2987 
636 2 28.4119 46.5252 10.2987 
637 2 32.4371 44.5126 8.28614 
638 2 34.4497 46.5252 8.28614 
639 2 34.4497 44.5126 10.2987 
640 2 32.4371 46.5252 10.2987 
641 2 36.4623 44.5126 8.28614 
642 2 38.4748 46.5252 8.28614 
643 2 38.4748 44.5126 10.2987 
644 2 36.4623 46.5252 10.2987 
645 2 40.4874 44.5126 8.28614 
646 2 42.5 46.5252 8.28614 
647 2 42.5 44.5126 10.2987 
648 2 40.4874 46.5252 10.2987 
649 2 44.5126 44.5126 8.28614 
650 2 46.5252 46.5252 8.28614 
651 2 46.5252 44.5126 10.2987 
652 2 44.5126 46.5252 10.2987 
653 2 48.5377 44.5126 8.28614 
654 2 50.5503 46.5252 8.28614 
655 2 50.5503 44.5126 10.2987 
656 2 48.5377 46.5252 10.2987 
657 2 52.5629 44.5126 8.28614 
658 2 54.5755 46.5252 8.28614 
659 2 54.5755 44.5126 10.2987 
660 2 52.5629 46.5252 10.2987 
661 2 56.5881 44.5126 8.28614 
662 2 58.6006 46.5252 8.28614 
663 2 58.6006 44.5126 10.2987 
664 2 56.5881 46.5252 10.2987 
665 2 60.6132 44.5126 8.28614 
666 2 62.6258 46.5252 8.28614 
667 2 62.6258 44.5126 10.2987 
668 2 60.6132 46.5252 10.2987 
669 2 64.6384 44.5126 8.28614 
670 2 66.651 46.5252 8.28614 
671 2 66.651 44.5126 10.2987 
672 2 64.6384 46.5252 10.2987 
673 2 68.6635 44.5126 8.28614 
674 2 70.6761 46.5252 8.28614 
675 2 70.6761 44.5126 10.2987 
676 2 68.6635 46.5252 10.2987 
677 2 72.6887 44.5126 8.28614 
678 2 74.7013 46.5252 8.28614 
679 2 74.7013 44.5126 10.2987 
680 2 72.6887 46.5252 10.2987 
681 2 8.28614 48.5377 8.28614 
682 2 10.2987 50.5503 8.28614 
683 2 10.2987 48.5377 10.2987 
684 2 8.28614 50.5503 10.2987 
685 2 12.3113 48.5377 8.28614 
686 2 14.3239 50.5503 8.28614 
687 2 14.3239 48.5377 10.2987 
688 2 12.3113 50.5503 10.2987 
689 2 16.3365 48.5377 8.28614 
690 2 18.349 50.5503 8.28614 
691 2 18.349 48.5377 10.2987 
692 2 16.3365 50.5503 10.2987 
693 2 20.3616 48.5377 8.28614 
694 2 22.3742 50.5503 8.28614 
695 2 22.3742 48.5377 10.2987 
696 2 20.3616 50.5503 10.2987 
697 2 24.3868 48.5377 8.28614 
698 2 26.3994 50.5503 8.28614 
699 2 26.3994 48.5377 10.2987 
700 2 24.3868 50.5503 10.2987 
701 2 28.4119 48.5377 8.28614 
702 2 30.4245 50.5503 8.28614 
703 2 30.4245 48.5377 10.2987 
704 2 28.4119 50.5503 10.2987 
705 2 32.4371 48.5377 8.28614 
706 2 34.4497 50.5503 8.28614 
707 2 34.4497 48.5377 10.2987 
708 2 32.4371 50.5503 10.2987 
709 2 36.4623 48.5377 8.28614 
710 2 38.4748 50.5503 8.28614 
711 2 38.4748 48.5377 10.2987 
712 2 36.4623 50.5503 10.2987 
713 2 40.4874 48.5377 8.28614 
714 2 42.5 50.5503 8.28614 
715 2 42.5 48.5377 10.2987 
716 2 40.4874 50.5503 10.2987 
717 2 44.5126 48.5377 8.28614 
718 2 46.5252 50.5503 8.28614 
719 2 46.5252 48.5377 10.2987 
720 2 44.5126 50.5503 10.2987 
721 2 48.5377 48.5377 8.28614 
722 2 50.5503 50.5503 8.28614 
723 2 50.5503 48.5377 10.2987 
724 2 48.5377 50.5503 10.2987 
725 2 52.5629 48.5377 8.28614 
726 2 54.5755 50.5503 8.28614 
727 2 54.5755 48.5377 10.2987 
728 2 52.5629 50.5503 10.2987 
729 2 56.5881 48.5377 8.28614 
730 2 58.6006 50.5503 8.28614 
731 2 58.6006 48.5377 10.2987 
732 2 56.5881 50.5503 10.2987 
733 2 60.6132 48.5377 8.28614 
734 2 62.6258 50.5503 8.28614 
735 2 62.6258 48.5377 10.2987 
736 2 60.6132 50.5503 10.2987 
737 2 64.6384 48.5377 8.28614 
738 2 66.651 50.5503 8.28614 
739 2 66.651 48.5377 10.2987 
740 2 64.6384 50.5503 10.2987 
741 2 68.6635 48.5377 8.28614 
742 2 70.6761 50.5503 8.28614 
743 2 70.6761 48.5377 10.2987 
744 2 68.6635 50.5503 10.2987 
745 2 72.6887 48.5377 8.28614 
746 2 74.7013 50.5503 8.28614 
747 2 74.7013 48.5377 10.2987 
748 2 72.6887 50.5503 10.2987 
749 2 8.28614 52.5629 8.28614 
750 2 10.2987 54.5755 8.28614 
751 2 10.2987 52.5629 10.2987 
752 2 8.28614 54.5755 10.2987 
753 2 12.3113 52.5629 8.28614 
754 2 14.3239 54.5755 8.28614 
755 2 14.3239 52.5629 10.2987 
756 2 12.3113 54.5755 10.2987 
757 2 16.3365 52.5629 8.28614 
758 2 18.349 54.5755 8.28614 
759 2 18.349 52.5629 10.2987 
760 2 16.3365 54.5755 10.2987 
761 2 20.3616 52.5629 8.28614 
762 2 22.3742 54.5755 8.28614 
763 2 22.3742 52.5629 10.2987 
764 2 20.3616 54.5755 10.2987 
765 2 24.3868 52.5629 8.28614 
766 2 26.3994 54.5755 8.28614 
767 2 26.3994 52.5629 10.2987 
768 2 24.3868 54.5755 10.2987 
769 2 28.4119 52.5629 8.28614 
770 2 30.4245 54.5755 8.28614 
771 2 30.4245 52.5629 10.2987 
772 2 28.4119 54.5755 10.2987 
773 2 32.4371 52.5629 8.28614 
774 2 34.4497 54.5755 8.28614 
775 2 34.4497 52.5629 10.2987 
776 2 32.4371 54.5755 10.2987 
777 2 36.4623 52.5629 8.28614 
778 2 38.4748 54.5755 8.28614 
779 2 38.4748 52.5629 10.2987 
780 2 36.4623 54.5755 10.2987 
781 2 40.4874 52.5629 8.28614 
782 2 42.5 54.5755 8.28614 
783 2 42.5 52.5629 10.2987 
784 2 40.4874 54.5755 10.2987 
785 2 44.5126 52.5629 8.28614 
786 2 46.5252 54.5755 8.28614 
787 2 46.5252 52.5629 10.2987 
788 2 44.5126 54.5755 10.2987 
789 2 48.5377 52.5629 8.28614 
790 2 50.5503 54.5755 8.28614 
791 2 50.5503 52.5629 10.2987 
792 2 48.5377 54.5755 10.2987 
793 2 52.5629 52.5629 8.28614 
794 2 54.5755 54.5755 8.28614 
795 2 54.5755 52.5629 10.2987 
796 2 52.5629 54.5755 10.2987 
797 2 56.5881 52.5629 8.28614 
798 2 58.6006 54.5755 8.28614 
799 2 58.6006 52.5629 10.2987 
800 2 56.5881 54.5755 10.2987 
801 2 60.6132 52.5629 8.28614 
802 2 62.6258 54.5755 8.28614 
803 2 62.6258 52.5629 10.2987 
804 2 60.6132 54.5755 10.2987 
805 2 64.6384 52.5629 8.28614 
806 2 66.651 54.5755 8.28614 
807 2 66.651 52.5629 10.2987 
808 2 64.6384 54.5755 10.2987 
809 2 68.6635 52.5629 8.28614 
810 2 70.6761 54.5755 8.28614 
811 2 70.6761 52.5629 10.2987 
812 2 68.6635 54.5755 10.2987 
813 2 72.6887 52.5629 8.28614 
814 2 74.7013 54.5755 8.28614 
815 2 74.7013 52.5629 10.2987 
816 2 72.6887 54.5755 10.2987 
817 2 8.28614 56.5881 8.28614 
818 2 10.2987 58.6006 8.28614 
819 2 10.2987 56.5881 10.2987 
820 2 8.28614 58.6006 10.2987 
821 2 12.3113 56.5881 8.28614 
822 2 14.3239 58.6006 8.28614 
823 2 14.3239 56.5881 10.2987 
824 2 12.3113 58.6006 10.2987 
825 2 16.3365 56.5881 8.28614 
826 2 18.349 58.6006 8.28614 
827 2 18.349 56.5881 10.2987 
828 2 16.3365 58.6006 10.2987 
829 2 20.3616 56.5881 8.28614 
830 2 22.3742 58.6006 8.28614 
831 2 22.3742 56.5881 10.2987 
832 2 20.3616 58.6006 10.2987 
833 2 24.3868 56.5881 8.28614 
834 2 26.3994 58.6006 8.28614 
835 2 26.3994 56.5881 10.2987 
836 2 24.3868 58.6006 10.2987 
837 2 28.4119 56.5881 8.28614 
838 2 30.4245 58.6006 8.28614 
839 2 30.4245 56.5881 10.2987 
840 2 28.4119 58.6006 10.2987 
841 2 32.4371 56.5881 8.28614 
842 2 34.4497 58.6006 8.28614 
843 2 34.4497 56.5881 10.2987 
844 2 32.4371 58.6006 10.2987 
845 2 36.4623 56.5881 8.28614 
846 2 38.4748 58.6006 8.28614 
847 2 38.4748 56.5881 10.2987 
848 2 36.4623 58.6006 10.2987 
849 2 40.4874 56.5881 8.28614 
850 2 42.5 58.6006 8.28614 
851 2 42.5 56.5881 10.2987 
852 2 40.4874 58.6006 10.2987 
853 2 44.5126 56.5881 8.28614 
854 2 46.5252 58.6006 8.28614 
855 2 46.5252 56.5881 10.2987 
856 2 44.5126 58.6006 10.2987 
857 2 48.5377 56.5881 8.28614 
858 2 50.5503 58.6006 8.28614 
859 2 50.5503 56.5881 10.2987 
860 2 48.5377 58.6006 10.2987 
861 2 52.5629 56.5881 8.28614 
862 2 54.5755 58.6006 8.28614 
863 2 54.5755 56.5881 10.2987 
864 2 52.5629 58.6006 10.2987 
865 2 56.5881 56.5881 8.28614 
866 2 58.6006 58.6006 8.28614 
867 2 58.6006 56.5881 10.2987 
868 2 56.5881 58.6006 10.2987 
869 2 60.6132 56.5881 8.28614 
870 2 62.6258 58.6006 8.28614 
871 2 62.6258 56.5881 10.2987 
872 2 60.6132 58.6006 10.2987 
873 2 64.6384 56.5881 8.28614 
874 2 66.651 58.6006 8.28614 
875 2 66.651 56.5881 10.2987 
876 2 64.6384 58.6006 10.2987 
877 2 68.6635 56.5881 8.28614 
878 2 70.6761 58.6006 8.28614 
879 2 70.6761 56.5881 10.2987 
880 2 68.6635 58.6006 10.2987 
881 2 72.6887 56.5881 8.28614 
882 2 74.7013 58.6006 8.28614 
883 2 74.7013 56.5881 10.2987 
884 2 72.6887 58.6006 10.2987 
885 2 8.28614 60.6132 8.28614 
886 2 10.2987 62.6258 8.28614 
887 2 10.2987 60.6132 10.2987 
888 2 8.28614 62.6258 10.2987 
889 2 12.3113 60.6132 8.28614 
890 2 14.3239 62.6258 8.28614 
891 2 14.3239 60.6132 10.2987 
892 2 12.3113 62.6258 10.2987 
893 2 16.3365 60.6132 8.28614 
894 2 18.349 62.6258 8.28614 
895 2 18.349 60.6132 10.2987 
896 2 16.3365 62.6258 10.2987 
897 2 20.3616 60.6132 8.28614 
898 2 22.3742 62.6258 8.28614 
899 2 22.3742 60.6132 10.2987 
900 2 20.3616 62.6258 10.2987 
901 2 24.3868 60.6132 8.28614 
902 2 26.3994 62.6258 8.28614 
903 2 26.3994 60.6132 10.2987 
904 2 24.3868 62.6258 10.2987 
905 2 28.4119 60.6132 8.28614 
906 2 30.4245 62.6258 8.28614 
907 2 30.4245 60.6132 10.2987 
908 2 28.4119 62.6258 10.2987 
909 2 32.4371 60.6132 8.28614 
910 2 34.4497 62.6258 8.28614 
911 2 34.4497 60.6132 10.2987 
912 2 32.4371 62.6258 10.2987 
913 2 36.4623 60.6132 8.28614 
914 2 38.4748 62.6258 8.28614 
915 2 38.4748 60.6132 10.2987 
916 2 36.4623 62.6258 10.2987 
917 2 40.4874 60.6132 8.28614 
918 2 42.5 62.6258 8.28614 
919 2 42.5 60.6132 10.2987 
920 2 40.4874 62.6258 10.2987 
921 2 44.5126 60.6132 8.28614 
922 2 46.5252 62.6258 8.28614 
923 2 46.5252 60.6132 10.2987 
924 2 44.5126 62.6258 10.2987 
925 2 48.5377 60.6132 8.28614 
926 2 50.5503 62.6258 8.28614 
927 2 50.5503 60.6132 10.2987 
928 2 48.5377 62.6258 10.2987 
929 2 52.5629 60.6132 8.28614 
930 2 54.5755 62.6258 8.28614 
931 2 54.5755 60.6132 10.2987 
932 2 52.5629 62.6258 10.2987 
933 2 56.5881 60.6132 8.28614 
934 2 58.6006 62.6258 8.28614 
935 2 58.6006 60.6132 10.2987 
936 2 56.5881 62.6258 10.2987 
937 2 60.6132 60.6132 8.28614 
938 2 62.6258 62.6258 8.28614 
939 2 62.6258 60.6132 10.2987 
940 2 60.6132 62.6258 10.2987 
941 2 64.6384 60.6132 8.28614 
942 2 66.651 62.6258 8.28614 
943 2 66.651 60.6132 10.2987 
944 2 64.6384 62.6258 10.2987 
945 2 68.6635 60.6132 8.28614 
946 2 70.6761 62.6258 8.28614 
947 2 70.6761 60.6132 10.2987 
948 2 68.6635 62.6258 10.2987 
949 2 72.6887 60.6132 8.28614 
950 2 74.7013 62.6258 8.28614 
951 2 74.7013 60.6132 10.2987 
952 2 72.6887 62.6258 10.2987 
953 2 8.28614 64.6384 8.28614 
954 2 10.2987 66.651 8.28614 
955 2 10.2987 64.6384 10.2987 
956 2 8.28614 66.651 10.2987 
957 2 12.3113 64.6384 8.28614 
958 2 14.3239 66.651 8.28614 
959 2 14.3239 64.6384 10.2987 
960 2 12.3113 66.651 10.2987 
961 2 16.3365 64.6384 8.28614 
962 2 18.349 66.651 8.28614 
963 2 18.349 64.6384 10.2987 
964 2 16.3365 66.651 10.2987 
965 2 20.3616 64.6384 8.28614 
966 2 22.3742 66.651 8.28614 
967 2 22.3742 64.6384 10.2987 
968 2 20.3616 66.651 10.2987 
969 2 24.3868 64.6384 8.28614 
970 2 26.3994 66.651 8.28614 
971 2 26.3994 64.6384 10.2987 
972 2 24.3868 66.651 10.2987 