ITEM: TIMESTEP
74
ITEM: NUMBER OF ATOMS
19652
ITEM: BOX BOUNDS pp pp pp
1.5276831844178835e+01 6.9723168155820801e+01
2.6460248932803793e+01 1.2076406971055124e+02
2.4946961936359632e+01 1.1385745682135361e+02
ITEM: ATOMS id type xu yu zu 
1 1 15.2768 26.4602 24.947 
2 1 16.8782 29.2339 24.947 
3 1 16.8782 31.083 27.562 
4 1 15.2768 28.3093 27.562 
5 1 18.4796 26.4602 24.947 
6 1 20.0809 29.2339 24.947 
7 1 20.0809 31.083 27.562 
8 1 18.4796 28.3093 27.562 
9 1 21.6823 26.4602 24.947 
10 1 23.2836 29.2339 24.947 
11 1 23.2836 31.083 27.562 
12 1 21.6823 28.3093 27.562 
13 1 24.885 26.4602 24.947 
14 1 26.4864 29.2339 24.947 
15 1 26.4864 31.083 27.562 
16 1 24.885 28.3093 27.562 
17 1 28.0877 26.4602 24.947 
18 1 29.6891 29.2339 24.947 
19 1 29.6891 31.083 27.562 
20 1 28.0877 28.3093 27.562 
21 1 31.2905 26.4602 24.947 
22 1 32.8918 29.2339 24.947 
23 1 32.8918 31.083 27.562 
24 1 31.2905 28.3093 27.562 
25 1 34.4932 26.4602 24.947 
26 1 36.0945 29.2339 24.947 
27 1 36.0945 31.083 27.562 
28 1 34.4932 28.3093 27.562 
29 1 37.6959 26.4602 24.947 
30 1 39.2973 29.2339 24.947 
31 1 39.2973 31.083 27.562 
32 1 37.6959 28.3093 27.562 
33 1 40.8986 26.4602 24.947 
34 1 42.5 29.2339 24.947 
35 1 42.5 31.083 27.562 
36 1 40.8986 28.3093 27.562 
37 1 44.1014 26.4602 24.947 
38 1 45.7027 29.2339 24.947 
39 1 45.7027 31.083 27.562 
40 1 44.1014 28.3093 27.562 
41 1 47.3041 26.4602 24.947 
42 1 48.9055 29.2339 24.947 
43 1 48.9055 31.083 27.562 
44 1 47.3041 28.3093 27.562 
45 1 50.5068 26.4602 24.947 
46 1 52.1082 29.2339 24.947 
47 1 52.1082 31.083 27.562 
48 1 50.5068 28.3093 27.562 
49 1 53.7095 26.4602 24.947 
50 1 55.3109 29.2339 24.947 
51 1 55.3109 31.083 27.562 
52 1 53.7095 28.3093 27.562 
53 1 56.9123 26.4602 24.947 
54 1 58.5136 29.2339 24.947 
55 1 58.5136 31.083 27.562 
56 1 56.9123 28.3093 27.562 
57 1 60.115 26.4602 24.947 
58 1 61.7164 29.2339 24.947 
59 1 61.7164 31.083 27.562 
60 1 60.115 28.3093 27.562 
61 1 63.3177 26.4602 24.947 
62 1 64.9191 29.2339 24.947 
63 1 64.9191 31.083 27.562 
64 1 63.3177 28.3093 27.562 
65 1 66.5204 26.4602 24.947 
66 1 68.1218 29.2339 24.947 
67 1 68.1218 31.083 27.562 
68 1 66.5204 28.3093 27.562 
69 1 15.2768 32.0075 24.947 
70 1 16.8782 34.7812 24.947 
71 1 16.8782 36.6303 27.562 
72 1 15.2768 33.8566 27.562 
73 1 18.4796 32.0075 24.947 
74 1 20.0809 34.7812 24.947 
75 1 20.0809 36.6303 27.562 
76 1 18.4796 33.8566 27.562 
77 1 21.6823 32.0075 24.947 
78 1 23.2836 34.7812 24.947 
79 1 23.2836 36.6303 27.562 
80 1 21.6823 33.8566 27.562 
81 1 24.885 32.0075 24.947 
82 1 26.4864 34.7812 24.947 
83 1 26.4864 36.6303 27.562 
84 1 24.885 33.8566 27.562 
85 1 28.0877 32.0075 24.947 
86 1 29.6891 34.7812 24.947 
87 1 29.6891 36.6303 27.562 
88 1 28.0877 33.8566 27.562 
89 1 31.2905 32.0075 24.947 
90 1 32.8918 34.7812 24.947 
91 1 32.8918 36.6303 27.562 
92 1 31.2905 33.8566 27.562 
93 1 34.4932 32.0075 24.947 
94 1 36.0945 34.7812 24.947 
95 1 36.0945 36.6303 27.562 
96 1 34.4932 33.8566 27.562 
97 1 37.6959 32.0075 24.947 
98 1 39.2973 34.7812 24.947 
99 1 39.2973 36.6303 27.562 
100 1 37.6959 33.8566 27.562 
101 1 40.8986 32.0075 24.947 
102 1 42.5 34.7812 24.947 
103 1 42.5 36.6303 27.562 
104 1 40.8986 33.8566 27.562 
105 1 44.1014 32.0075 24.947 
106 1 45.7027 34.7812 24.947 
107 1 45.7027 36.6303 27.562 
108 1 44.1014 33.8566 27.562 
109 1 47.3041 32.0075 24.947 
110 1 48.9055 34.7812 24.947 
111 1 48.9055 36.6303 27.562 
112 1 47.3041 33.8566 27.562 
113 1 50.5068 32.0075 24.947 
114 1 52.1082 34.7812 24.947 
115 1 52.1082 36.6303 27.562 
116 1 50.5068 33.8566 27.562 
117 1 53.7095 32.0075 24.947 
118 1 55.3109 34.7812 24.947 
119 1 55.3109 36.6303 27.562 
120 1 53.7095 33.8566 27.562 
121 1 56.9123 32.0075 24.947 
122 1 58.5136 34.7812 24.947 
123 1 58.5136 36.6303 27.562 
124 1 56.9123 33.8566 27.562 
125 1 60.115 32.0075 24.947 
126 1 61.7164 34.7812 24.947 
127 1 61.7164 36.6303 27.562 
128 1 60.115 33.8566 27.562 
129 1 63.3177 32.0075 24.947 
130 1 64.9191 34.7812 24.947 
131 1 64.9191 36.6303 27.562 
132 1 63.3177 33.8566 27.562 
133 1 66.5204 32.0075 24.947 
134 1 68.1218 34.7812 24.947 
135 1 68.1218 36.6303 27.562 
136 1 66.5204 33.8566 27.562 
137 1 15.2768 37.5548 24.947 
138 1 16.8782 40.3285 24.947 
139 1 16.8782 42.1776 27.562 
140 1 15.2768 39.4039 27.562 
141 1 18.4796 37.5548 24.947 
142 1 20.0809 40.3285 24.947 
143 1 20.0809 42.1776 27.562 
144 1 18.4796 39.4039 27.562 
145 1 21.6823 37.5548 24.947 
146 1 23.2836 40.3285 24.947 
147 1 23.2836 42.1776 27.562 
148 1 21.6823 39.4039 27.562 
149 1 24.885 37.5548 24.947 
150 1 26.4864 40.3285 24.947 
151 1 26.4864 42.1776 27.562 
152 1 24.885 39.4039 27.562 
153 1 28.0877 37.5548 24.947 
154 1 29.6891 40.3285 24.947 
155 1 29.6891 42.1776 27.562 
156 1 28.0877 39.4039 27.562 
157 1 31.2905 37.5548 24.947 
158 1 32.8918 40.3285 24.947 
159 1 32.8918 42.1776 27.562 
160 1 31.2905 39.4039 27.562 
161 1 34.4932 37.5548 24.947 
162 1 36.0945 40.3285 24.947 
163 1 36.0945 42.1776 27.562 
164 1 34.4932 39.4039 27.562 
165 1 37.6959 37.5548 24.947 
166 1 39.2973 40.3285 24.947 
167 1 39.2973 42.1776 27.562 
168 1 37.6959 39.4039 27.562 
169 1 40.8986 37.5548 24.947 
170 1 42.5 40.3285 24.947 
171 1 42.5 42.1776 27.562 
172 1 40.8986 39.4039 27.562 
173 1 44.1014 37.5548 24.947 
174 1 45.7027 40.3285 24.947 
175 1 45.7027 42.1776 27.562 
176 1 44.1014 39.4039 27.562 
177 1 47.3041 37.5548 24.947 
178 1 48.9055 40.3285 24.947 
179 1 48.9055 42.1776 27.562 
180 1 47.3041 39.4039 27.562 
181 1 50.5068 37.5548 24.947 
182 1 52.1082 40.3285 24.947 
183 1 52.1082 42.1776 27.562 
184 1 50.5068 39.4039 27.562 
185 1 53.7095 37.5548 24.947 
186 1 55.3109 40.3285 24.947 
187 1 55.3109 42.1776 27.562 
188 1 53.7095 39.4039 27.562 
189 1 56.9123 37.5548 24.947 
190 1 58.5136 40.3285 24.947 
191 1 58.5136 42.1776 27.562 
192 1 56.9123 39.4039 27.562 
193 1 60.115 37.5548 24.947 
194 1 61.7164 40.3285 24.947 
195 1 61.7164 42.1776 27.562 
196 1 60.115 39.4039 27.562 
197 1 63.3177 37.5548 24.947 
198 1 64.9191 40.3285 24.947 
199 1 64.9191 42.1776 27.562 
200 1 63.3177 39.4039 27.562 
201 1 66.5204 37.5548 24.947 
202 1 68.1218 40.3285 24.947 
203 1 68.1218 42.1776 27.562 
204 1 66.5204 39.4039 27.562 
205 1 15.2768 43.1021 24.947 
206 1 16.8782 45.8757 24.947 
207 1 16.8782 47.7248 27.562 
208 1 15.2768 44.9512 27.562 
209 1 18.4796 43.1021 24.947 
210 1 20.0809 45.8757 24.947 
211 1 20.0809 47.7248 27.562 
212 1 18.4796 44.9512 27.562 
213 1 21.6823 43.1021 24.947 
214 1 23.2836 45.8757 24.947 
215 1 23.2836 47.7248 27.562 
216 1 21.6823 44.9512 27.562 
217 1 24.885 43.1021 24.947 
218 1 26.4864 45.8757 24.947 
219 1 26.4864 47.7248 27.562 
220 1 24.885 44.9512 27.562 
221 1 28.0877 43.1021 24.947 
222 1 29.6891 45.8757 24.947 
223 1 29.6891 47.7248 27.562 
224 1 28.0877 44.9512 27.562 
225 1 31.2905 43.1021 24.947 
226 1 32.8918 45.8757 24.947 
227 1 32.8918 47.7248 27.562 
228 1 31.2905 44.9512 27.562 
229 1 34.4932 43.1021 24.947 
230 1 36.0945 45.8757 24.947 
231 1 36.0945 47.7248 27.562 
232 1 34.4932 44.9512 27.562 
233 1 37.6959 43.1021 24.947 
234 1 39.2973 45.8757 24.947 
235 1 39.2973 47.7248 27.562 
236 1 37.6959 44.9512 27.562 
237 1 40.8986 43.1021 24.947 
238 1 42.5 45.8757 24.947 
239 1 42.5 47.7248 27.562 
240 1 40.8986 44.9512 27.562 
241 1 44.1014 43.1021 24.947 
242 1 45.7027 45.8757 24.947 
243 1 45.7027 47.7248 27.562 
244 1 44.1014 44.9512 27.562 
245 1 47.3041 43.1021 24.947 
246 1 48.9055 45.8757 24.947 
247 1 48.9055 47.7248 27.562 
248 1 47.3041 44.9512 27.562 
249 1 50.5068 43.1021 24.947 
250 1 52.1082 45.8757 24.947 
251 1 52.1082 47.7248 27.562 
252 1 50.5068 44.9512 27.562 
253 1 53.7095 43.1021 24.947 
254 1 55.3109 45.8757 24.947 
255 1 55.3109 47.7248 27.562 
256 1 53.7095 44.9512 27.562 
257 1 56.9123 43.1021 24.947 
258 1 58.5136 45.8757 24.947 
259 1 58.5136 47.7248 27.562 
260 1 56.9123 44.9512 27.562 
261 1 60.115 43.1021 24.947 
262 1 61.7164 45.8757 24.947 
263 1 61.7164 47.7248 27.562 
264 1 60.115 44.9512 27.562 
265 1 63.3177 43.1021 24.947 
266 1 64.9191 45.8757 24.947 
267 1 64.9191 47.7248 27.562 
268 1 63.3177 44.9512 27.562 
269 1 66.5204 43.1021 24.947 
270 1 68.1218 45.8757 24.947 
271 1 68.1218 47.7248 27.562 
272 1 66.5204 44.9512 27.562 
273 1 15.2768 48.6494 24.947 
274 1 16.8782 51.423 24.947 
275 1 16.8782 53.2721 27.562 
276 1 15.2768 50.4985 27.562 
277 1 18.4796 48.6494 24.947 
278 1 20.0809 51.423 24.947 
279 1 20.0809 53.2721 27.562 
280 1 18.4796 50.4985 27.562 
281 1 21.6823 48.6494 24.947 
282 1 23.2836 51.423 24.947 
283 1 23.2836 53.2721 27.562 
284 1 21.6823 50.4985 27.562 
285 1 24.885 48.6494 24.947 
286 1 26.4864 51.423 24.947 
287 1 26.4864 53.2721 27.562 
288 1 24.885 50.4985 27.562 
289 1 28.0877 48.6494 24.947 
290 1 29.6891 51.423 24.947 
291 1 29.6891 53.2721 27.562 
292 1 28.0877 50.4985 27.562 
293 1 31.2905 48.6494 24.947 
294 1 32.8918 51.423 24.947 
295 1 32.8918 53.2721 27.562 
296 1 31.2905 50.4985 27.562 
297 1 34.4932 48.6494 24.947 
298 1 36.0945 51.423 24.947 
299 1 36.0945 53.2721 27.562 
300 1 34.4932 50.4985 27.562 
301 1 37.6959 48.6494 24.947 
302 1 39.2973 51.423 24.947 
303 1 39.2973 53.2721 27.562 
304 1 37.6959 50.4985 27.562 
305 1 40.8986 48.6494 24.947 
306 1 42.5 51.423 24.947 
307 1 42.5 53.2721 27.562 
308 1 40.8986 50.4985 27.562 
309 1 44.1014 48.6494 24.947 
310 1 45.7027 51.423 24.947 
311 1 45.7027 53.2721 27.562 
312 1 44.1014 50.4985 27.562 
313 1 47.3041 48.6494 24.947 
314 1 48.9055 51.423 24.947 
315 1 48.9055 53.2721 27.562 
316 1 47.3041 50.4985 27.562 
317 1 50.5068 48.6494 24.947 
318 1 52.1082 51.423 24.947 
319 1 52.1082 53.2721 27.562 
320 1 50.5068 50.4985 27.562 
321 1 53.7095 48.6494 24.947 
322 1 55.3109 51.423 24.947 
323 1 55.3109 53.2721 27.562 
324 1 53.7095 50.4985 27.562 
325 1 56.9123 48.6494 24.947 
326 1 58.5136 51.423 24.947 
327 1 58.5136 53.2721 27.562 
328 1 56.9123 50.4985 27.562 
329 1 60.115 48.6494 24.947 
330 1 61.7164 51.423 24.947 
331 1 61.7164 53.2721 27.562 
332 1 60.115 50.4985 27.562 
333 1 63.3177 48.6494 24.947 
334 1 64.9191 51.423 24.947 
335 1 64.9191 53.2721 27.562 
336 1 63.3177 50.4985 27.562 
337 1 66.5204 48.6494 24.947 
338 1 68.1218 51.423 24.947 
339 1 68.1218 53.2721 27.562 
340 1 66.5204 50.4985 27.562 
341 1 15.2768 54.1967 24.947 
342 1 16.8782 56.9703 24.947 
343 1 16.8782 58.8194 27.562 
344 1 15.2768 56.0458 27.562 
345 1 18.4796 54.1967 24.947 
346 1 20.0809 56.9703 24.947 
347 1 20.0809 58.8194 27.562 
348 1 18.4796 56.0458 27.562 
349 1 21.6823 54.1967 24.947 
350 1 23.2836 56.9703 24.947 
351 1 23.2836 58.8194 27.562 
352 1 21.6823 56.0458 27.562 
353 1 24.885 54.1967 24.947 
354 1 26.4864 56.9703 24.947 
355 1 26.4864 58.8194 27.562 
356 1 24.885 56.0458 27.562 
357 1 28.0877 54.1967 24.947 
358 1 29.6891 56.9703 24.947 
359 1 29.6891 58.8194 27.562 
360 1 28.0877 56.0458 27.562 
361 1 31.2905 54.1967 24.947 
362 1 32.8918 56.9703 24.947 
363 1 32.8918 58.8194 27.562 
364 1 31.2905 56.0458 27.562 
365 1 34.4932 54.1967 24.947 
366 1 36.0945 56.9703 24.947 
367 1 36.0945 58.8194 27.562 
368 1 34.4932 56.0458 27.562 
369 1 37.6959 54.1967 24.947 
370 1 39.2973 56.9703 24.947 
371 1 39.2973 58.8194 27.562 
372 1 37.6959 56.0458 27.562 
373 1 40.8986 54.1967 24.947 
374 1 42.5 56.9703 24.947 
375 1 42.5 58.8194 27.562 
376 1 40.8986 56.0458 27.562 
377 1 44.1014 54.1967 24.947 
378 1 45.7027 56.9703 24.947 
379 1 45.7027 58.8194 27.562 
380 1 44.1014 56.0458 27.562 
381 1 47.3041 54.1967 24.947 
382 1 48.9055 56.9703 24.947 
383 1 48.9055 58.8194 27.562 
384 1 47.3041 56.0458 27.562 
385 1 50.5068 54.1967 24.947 
386 1 52.1082 56.9703 24.947 
387 1 52.1082 58.8194 27.562 
388 1 50.5068 56.0458 27.562 
389 1 53.7095 54.1967 24.947 
390 1 55.3109 56.9703 24.947 
391 1 55.3109 58.8194 27.562 
392 1 53.7095 56.0458 27.562 
393 1 56.9123 54.1967 24.947 
394 1 58.5136 56.9703 24.947 
395 1 58.5136 58.8194 27.562 
396 1 56.9123 56.0458 27.562 
397 1 60.115 54.1967 24.947 
398 1 61.7164 56.9703 24.947 
399 1 61.7164 58.8194 27.562 
400 1 60.115 56.0458 27.562 
401 1 63.3177 54.1967 24.947 
402 1 64.9191 56.9703 24.947 
403 1 64.9191 58.8194 27.562 
404 1 63.3177 56.0458 27.562 
405 1 66.5204 54.1967 24.947 
406 1 68.1218 56.9703 24.947 
407 1 68.1218 58.8194 27.562 
408 1 66.5204 56.0458 27.562 
409 1 15.2768 59.744 24.947 
410 1 16.8782 62.5176 24.947 
411 1 16.8782 64.3667 27.562 
412 1 15.2768 61.593 27.562 
413 1 18.4796 59.744 24.947 
414 1 20.0809 62.5176 24.947 
415 1 20.0809 64.3667 27.562 
416 1 18.4796 61.593 27.562 
417 1 21.6823 59.744 24.947 
418 1 23.2836 62.5176 24.947 
419 1 23.2836 64.3667 27.562 
420 1 21.6823 61.593 27.562 
421 1 24.885 59.744 24.947 
422 1 26.4864 62.5176 24.947 
423 1 26.4864 64.3667 27.562 
424 1 24.885 61.593 27.562 
425 1 28.0877 59.744 24.947 
426 1 29.6891 62.5176 24.947 
427 1 29.6891 64.3667 27.562 
428 1 28.0877 61.593 27.562 
429 1 31.2905 59.744 24.947 
430 1 32.8918 62.5176 24.947 
431 1 32.8918 64.3667 27.562 
432 1 31.2905 61.593 27.562 
433 1 34.4932 59.744 24.947 
434 1 36.0945 62.5176 24.947 
435 1 36.0945 64.3667 27.562 
436 1 34.4932 61.593 27.562 
437 1 37.6959 59.744 24.947 
438 1 39.2973 62.5176 24.947 
439 1 39.2973 64.3667 27.562 
440 1 37.6959 61.593 27.562 
441 1 40.8986 59.744 24.947 
442 1 42.5 62.5176 24.947 
443 1 42.5 64.3667 27.562 
444 1 40.8986 61.593 27.562 
445 1 44.1014 59.744 24.947 
446 1 45.7027 62.5176 24.947 
447 1 45.7027 64.3667 27.562 
448 1 44.1014 61.593 27.562 
449 1 47.3041 59.744 24.947 
450 1 48.9055 62.5176 24.947 
451 1 48.9055 64.3667 27.562 
452 1 47.3041 61.593 27.562 
453 1 50.5068 59.744 24.947 
454 1 52.1082 62.5176 24.947 
455 1 52.1082 64.3667 27.562 
456 1 50.5068 61.593 27.562 
457 1 53.7095 59.744 24.947 
458 1 55.3109 62.5176 24.947 
459 1 55.3109 64.3667 27.562 
460 1 53.7095 61.593 27.562 
461 1 56.9123 59.744 24.947 
462 1 58.5136 62.5176 24.947 
463 1 58.5136 64.3667 27.562 
464 1 56.9123 61.593 27.562 
465 1 60.115 59.744 24.947 
466 1 61.7164 62.5176 24.947 
467 1 61.7164 64.3667 27.562 
468 1 60.115 61.593 27.562 
469 1 63.3177 59.744 24.947 
470 1 64.9191 62.5176 24.947 
471 1 64.9191 64.3667 27.562 
472 1 63.3177 61.593 27.562 
473 1 66.5204 59.744 24.947 
474 1 68.1218 62.5176 24.947 
475 1 68.1218 64.3667 27.562 
476 1 66.5204 61.593 27.562 
477 1 15.2768 65.2912 24.947 
478 1 16.8782 68.0649 24.947 
479 1 16.8782 69.914 27.562 
480 1 15.2768 67.1403 27.562 
481 1 18.4796 65.2912 24.947 
482 1 20.0809 68.0649 24.947 
483 1 20.0809 69.914 27.562 
484 1 18.4796 67.1403 27.562 
485 1 21.6823 65.2912 24.947 
486 1 23.2836 68.0649 24.947 
487 1 23.2836 69.914 27.562 
488 1 21.6823 67.1403 27.562 
489 1 24.885 65.2912 24.947 
490 1 26.4864 68.0649 24.947 
491 1 26.4864 69.914 27.562 
492 1 24.885 67.1403 27.562 
493 1 28.0877 65.2912 24.947 
494 1 29.6891 68.0649 24.947 
495 1 29.6891 69.914 27.562 
496 1 28.0877 67.1403 27.562 
497 1 31.2905 65.2912 24.947 
498 1 32.8918 68.0649 24.947 
499 1 32.8918 69.914 27.562 
500 1 31.2905 67.1403 27.562 
501 1 34.4932 65.2912 24.947 
502 1 36.0945 68.0649 24.947 
503 1 36.0945 69.914 27.562 
504 1 34.4932 67.1403 27.562 
505 1 37.6959 65.2912 24.947 
506 1 39.2973 68.0649 24.947 
507 1 39.2973 69.914 27.562 
508 1 37.6959 67.1403 27.562 
509 1 40.8986 65.2912 24.947 
510 1 42.5 68.0649 24.947 
511 1 42.5 69.914 27.562 
512 1 40.8986 67.1403 27.562 
513 1 44.1014 65.2912 24.947 
514 1 45.7027 68.0649 24.947 
515 1 45.7027 69.914 27.562 
516 1 44.1014 67.1403 27.562 
517 1 47.3041 65.2912 24.947 
518 1 48.9055 68.0649 24.947 
519 1 48.9055 69.914 27.562 
520 1 47.3041 67.1403 27.562 
521 1 50.5068 65.2912 24.947 
522 1 52.1082 68.0649 24.947 
523 1 52.1082 69.914 27.562 
524 1 50.5068 67.1403 27.562 
525 1 53.7095 65.2912 24.947 
526 1 55.3109 68.0649 24.947 
527 1 55.3109 69.914 27.562 
528 1 53.7095 67.1403 27.562 
529 1 56.9123 65.2912 24.947 
530 1 58.5136 68.0649 24.947 
531 1 58.5136 69.914 27.562 
532 1 56.9123 67.1403 27.562 
533 1 60.115 65.2912 24.947 
534 1 61.7164 68.0649 24.947 
535 1 61.7164 69.914 27.562 
536 1 60.115 67.1403 27.562 
537 1 63.3177 65.2912 24.947 
538 1 64.9191 68.0649 24.947 
539 1 64.9191 69.914 27.562 
540 1 63.3177 67.1403 27.562 
541 1 66.5204 65.2912 24.947 
542 1 68.1218 68.0649 24.947 
543 1 68.1218 69.914 27.562 
544 1 66.5204 67.1403 27.562 
545 1 15.2768 70.8385 24.947 
546 1 16.8782 73.6122 24.947 
547 1 16.8782 75.4613 27.562 
548 1 15.2768 72.6876 27.562 
549 1 18.4796 70.8385 24.947 
550 1 20.0809 73.6122 24.947 
551 1 20.0809 75.4613 27.562 
552 1 18.4796 72.6876 27.562 
553 1 21.6823 70.8385 24.947 
554 1 23.2836 73.6122 24.947 
555 1 23.2836 75.4613 27.562 
556 1 21.6823 72.6876 27.562 
557 1 24.885 70.8385 24.947 
558 1 26.4864 73.6122 24.947 
559 1 26.4864 75.4613 27.562 
560 1 24.885 72.6876 27.562 
561 1 28.0877 70.8385 24.947 
562 1 29.6891 73.6122 24.947 
563 1 29.6891 75.4613 27.562 
564 1 28.0877 72.6876 27.562 
565 1 31.2905 70.8385 24.947 
566 1 32.8918 73.6122 24.947 
567 1 32.8918 75.4613 27.562 
568 1 31.2905 72.6876 27.562 
569 1 34.4932 70.8385 24.947 
570 1 36.0945 73.6122 24.947 
571 1 36.0945 75.4613 27.562 
572 1 34.4932 72.6876 27.562 
573 1 37.6959 70.8385 24.947 
574 1 39.2973 73.6122 24.947 
575 1 39.2973 75.4613 27.562 
576 1 37.6959 72.6876 27.562 
577 1 40.8986 70.8385 24.947 
578 1 42.5 73.6122 24.947 
579 1 42.5 75.4613 27.562 
580 1 40.8986 72.6876 27.562 
581 1 44.1014 70.8385 24.947 
582 1 45.7027 73.6122 24.947 
583 1 45.7027 75.4613 27.562 
584 1 44.1014 72.6876 27.562 
585 1 47.3041 70.8385 24.947 
586 1 48.9055 73.6122 24.947 
587 1 48.9055 75.4613 27.562 
588 1 47.3041 72.6876 27.562 
589 1 50.5068 70.8385 24.947 
590 1 52.1082 73.6122 24.947 
591 1 52.1082 75.4613 27.562 
592 1 50.5068 72.6876 27.562 
593 1 53.7095 70.8385 24.947 
594 1 55.3109 73.6122 24.947 
595 1 55.3109 75.4613 27.562 
596 1 53.7095 72.6876 27.562 
597 1 56.9123 70.8385 24.947 
598 1 58.5136 73.6122 24.947 
599 1 58.5136 75.4613 27.562 
600 1 56.9123 72.6876 27.562 
601 1 60.115 70.8385 24.947 
602 1 61.7164 73.6122 24.947 
603 1 61.7164 75.4613 27.562 
604 1 60.115 72.6876 27.562 
605 1 63.3177 70.8385 24.947 
606 1 64.9191 73.6122 24.947 
607 1 64.9191 75.4613 27.562 
608 1 63.3177 72.6876 27.562 
609 1 66.5204 70.8385 24.947 
610 1 68.1218 73.6122 24.947 
611 1 68.1218 75.4613 27.562 
612 1 66.5204 72.6876 27.562 
613 1 15.2768 76.3858 24.947 
614 1 16.8782 79.1594 24.947 
615 1 16.8782 81.0085 27.562 
616 1 15.2768 78.2349 27.562 
617 1 18.4796 76.3858 24.947 
618 1 20.0809 79.1594 24.947 
619 1 20.0809 81.0085 27.562 
620 1 18.4796 78.2349 27.562 
621 1 21.6823 76.3858 24.947 
622 1 23.2836 79.1594 24.947 
623 1 23.2836 81.0085 27.562 
624 1 21.6823 78.2349 27.562 
625 1 24.885 76.3858 24.947 
626 1 26.4864 79.1594 24.947 
627 1 26.4864 81.0085 27.562 
628 1 24.885 78.2349 27.562 
629 1 28.0877 76.3858 24.947 
630 1 29.6891 79.1594 24.947 
631 1 29.6891 81.0085 27.562 
632 1 28.0877 78.2349 27.562 
633 1 31.2905 76.3858 24.947 
634 1 32.8918 79.1594 24.947 
635 1 32.8918 81.0085 27.562 
636 1 31.2905 78.2349 27.562 
637 1 34.4932 76.3858 24.947 
638 1 36.0945 79.1594 24.947 
639 1 36.0945 81.0085 27.562 
640 1 34.4932 78.2349 27.562 
641 1 37.6959 76.3858 24.947 
642 1 39.2973 79.1594 24.947 
643 1 39.2973 81.0085 27.562 
644 1 37.6959 78.2349 27.562 
645 1 40.8986 76.3858 24.947 
646 1 42.5 79.1594 24.947 
647 1 42.5 81.0085 27.562 
648 1 40.8986 78.2349 27.562 
649 1 44.1014 76.3858 24.947 
650 1 45.7027 79.1594 24.947 
651 1 45.7027 81.0085 27.562 
652 1 44.1014 78.2349 27.562 
653 1 47.3041 76.3858 24.947 
654 1 48.9055 79.1594 24.947 
655 1 48.9055 81.0085 27.562 
656 1 47.3041 78.2349 27.562 
657 1 50.5068 76.3858 24.947 
658 1 52.1082 79.1594 24.947 
659 1 52.1082 81.0085 27.562 
660 1 50.5068 78.2349 27.562 
661 1 53.7095 76.3858 24.947 
662 1 55.3109 79.1594 24.947 
663 1 55.3109 81.0085 27.562 
664 1 53.7095 78.2349 27.562 
665 1 56.9123 76.3858 24.947 
666 1 58.5136 79.1594 24.947 
667 1 58.5136 81.0085 27.562 
668 1 56.9123 78.2349 27.562 
669 1 60.115 76.3858 24.947 
670 1 61.7164 79.1594 24.947 
671 1 61.7164 81.0085 27.562 
672 1 60.115 78.2349 27.562 
673 1 63.3177 76.3858 24.947 
674 1 64.9191 79.1594 24.947 
675 1 64.9191 81.0085 27.562 
676 1 63.3177 78.2349 27.562 
677 1 66.5204 76.3858 24.947 
678 1 68.1218 79.1594 24.947 
679 1 68.1218 81.0085 27.562 
680 1 66.5204 78.2349 27.562 
681 1 15.2768 81.9331 24.947 
682 1 16.8782 84.7067 24.947 
683 1 16.8782 86.5558 27.562 
684 1 15.2768 83.7822 27.562 
685 1 18.4796 81.9331 24.947 
686 1 20.0809 84.7067 24.947 
687 1 20.0809 86.5558 27.562 
688 1 18.4796 83.7822 27.562 
689 1 21.6823 81.9331 24.947 
690 1 23.2836 84.7067 24.947 
691 1 23.2836 86.5558 27.562 
692 1 21.6823 83.7822 27.562 
693 1 24.885 81.9331 24.947 
694 1 26.4864 84.7067 24.947 
695 1 26.4864 86.5558 27.562 
696 1 24.885 83.7822 27.562 
697 1 28.0877 81.9331 24.947 
698 1 29.6891 84.7067 24.947 
699 1 29.6891 86.5558 27.562 
700 1 28.0877 83.7822 27.562 
701 1 31.2905 81.9331 24.947 
702 1 32.8918 84.7067 24.947 
703 1 32.8918 86.5558 27.562 
704 1 31.2905 83.7822 27.562 
705 1 34.4932 81.9331 24.947 
706 1 36.0945 84.7067 24.947 
707 1 36.0945 86.5558 27.562 
708 1 34.4932 83.7822 27.562 
709 1 37.6959 81.9331 24.947 
710 1 39.2973 84.7067 24.947 
711 1 39.2973 86.5558 27.562 
712 1 37.6959 83.7822 27.562 
713 1 40.8986 81.9331 24.947 
714 1 42.5 84.7067 24.947 
715 1 42.5 86.5558 27.562 
716 1 40.8986 83.7822 27.562 
717 1 44.1014 81.9331 24.947 
718 1 45.7027 84.7067 24.947 
719 1 45.7027 86.5558 27.562 
720 1 44.1014 83.7822 27.562 
721 1 47.3041 81.9331 24.947 
722 1 48.9055 84.7067 24.947 
723 1 48.9055 86.5558 27.562 
724 1 47.3041 83.7822 27.562 
725 1 50.5068 81.9331 24.947 
726 1 52.1082 84.7067 24.947 
727 1 52.1082 86.5558 27.562 
728 1 50.5068 83.7822 27.562 
729 1 53.7095 81.9331 24.947 
730 1 55.3109 84.7067 24.947 
731 1 55.3109 86.5558 27.562 
732 1 53.7095 83.7822 27.562 
733 1 56.9123 81.9331 24.947 
734 1 58.5136 84.7067 24.947 
735 1 58.5136 86.5558 27.562 
736 1 56.9123 83.7822 27.562 
737 1 60.115 81.9331 24.947 
738 1 61.7164 84.7067 24.947 
739 1 61.7164 86.5558 27.562 
740 1 60.115 83.7822 27.562 
741 1 63.3177 81.9331 24.947 
742 1 64.9191 84.7067 24.947 
743 1 64.9191 86.5558 27.562 
744 1 63.3177 83.7822 27.562 
745 1 66.5204 81.9331 24.947 
746 1 68.1218 84.7067 24.947 
747 1 68.1218 86.5558 27.562 
748 1 66.5204 83.7822 27.562 
749 1 15.2768 87.4804 24.947 
750 1 16.8782 90.254 24.947 
751 1 16.8782 92.1031 27.562 
752 1 15.2768 89.3295 27.562 
753 1 18.4796 87.4804 24.947 
754 1 20.0809 90.254 24.947 
755 1 20.0809 92.1031 27.562 
756 1 18.4796 89.3295 27.562 
757 1 21.6823 87.4804 24.947 
758 1 23.2836 90.254 24.947 
759 1 23.2836 92.1031 27.562 
760 1 21.6823 89.3295 27.562 
761 1 24.885 87.4804 24.947 
762 1 26.4864 90.254 24.947 
763 1 26.4864 92.1031 27.562 
764 1 24.885 89.3295 27.562 
765 1 28.0877 87.4804 24.947 
766 1 29.6891 90.254 24.947 
767 1 29.6891 92.1031 27.562 
768 1 28.0877 89.3295 27.562 
769 1 31.2905 87.4804 24.947 
770 1 32.8918 90.254 24.947 
771 1 32.8918 92.1031 27.562 
772 1 31.2905 89.3295 27.562 
773 1 34.4932 87.4804 24.947 
774 1 36.0945 90.254 24.947 
775 1 36.0945 92.1031 27.562 
776 1 34.4932 89.3295 27.562 
777 1 37.6959 87.4804 24.947 
778 1 39.2973 90.254 24.947 
779 1 39.2973 92.1031 27.562 
780 1 37.6959 89.3295 27.562 
781 1 40.8986 87.4804 24.947 
782 1 42.5 90.254 24.947 
783 1 42.5 92.1031 27.562 
784 1 40.8986 89.3295 27.562 
785 1 44.1014 87.4804 24.947 
786 1 45.7027 90.254 24.947 
787 1 45.7027 92.1031 27.562 
788 1 44.1014 89.3295 27.562 
789 1 47.3041 87.4804 24.947 
790 1 48.9055 90.254 24.947 
791 1 48.9055 92.1031 27.562 
792 1 47.3041 89.3295 27.562 
793 1 50.5068 87.4804 24.947 
794 1 52.1082 90.254 24.947 
795 1 52.1082 92.1031 27.562 
796 1 50.5068 89.3295 27.562 
797 1 53.7095 87.4804 24.947 
798 1 55.3109 90.254 24.947 
799 1 55.3109 92.1031 27.562 
800 1 53.7095 89.3295 27.562 
801 1 56.9123 87.4804 24.947 
802 1 58.5136 90.254 24.947 
803 1 58.5136 92.1031 27.562 
804 1 56.9123 89.3295 27.562 
805 1 60.115 87.4804 24.947 
806 1 61.7164 90.254 24.947 
807 1 61.7164 92.1031 27.562 
808 1 60.115 89.3295 27.562 
809 1 63.3177 87.4804 24.947 
810 1 64.9191 90.254 24.947 
811 1 64.9191 92.1031 27.562 
812 1 63.3177 89.3295 27.562 
813 1 66.5204 87.4804 24.947 
814 1 68.1218 90.254 24.947 
815 1 68.1218 92.1031 27.562 
816 1 66.5204 89.3295 27.562 
817 1 15.2768 93.0277 24.947 
818 1 16.8782 95.8013 24.947 
819 1 16.8782 97.6504 27.562 
820 1 15.2768 94.8767 27.562 
821 1 18.4796 93.0277 24.947 
822 1 20.0809 95.8013 24.947 
823 1 20.0809 97.6504 27.562 
824 1 18.4796 94.8767 27.562 
825 1 21.6823 93.0277 24.947 
826 1 23.2836 95.8013 24.947 
827 1 23.2836 97.6504 27.562 
828 1 21.6823 94.8767 27.562 
829 1 24.885 93.0277 24.947 
830 1 26.4864 95.8013 24.947 
831 1 26.4864 97.6504 27.562 
832 1 24.885 94.8767 27.562 
833 1 28.0877 93.0277 24.947 
834 1 29.6891 95.8013 24.947 
835 1 29.6891 97.6504 27.562 
836 1 28.0877 94.8767 27.562 
837 1 31.2905 93.0277 24.947 
838 1 32.8918 95.8013 24.947 
839 1 32.8918 97.6504 27.562 
840 1 31.2905 94.8767 27.562 
841 1 34.4932 93.0277 24.947 
842 1 36.0945 95.8013 24.947 
843 1 36.0945 97.6504 27.562 
844 1 34.4932 94.8767 27.562 
845 1 37.6959 93.0277 24.947 
846 1 39.2973 95.8013 24.947 
847 1 39.2973 97.6504 27.562 
848 1 37.6959 94.8767 27.562 
849 1 40.8986 93.0277 24.947 
850 1 42.5 95.8013 24.947 
851 1 42.5 97.6504 27.562 
852 1 40.8986 94.8767 27.562 
853 1 44.1014 93.0277 24.947 
854 1 45.7027 95.8013 24.947 
855 1 45.7027 97.6504 27.562 
856 1 44.1014 94.8767 27.562 
857 1 47.3041 93.0277 24.947 
858 1 48.9055 95.8013 24.947 
859 1 48.9055 97.6504 27.562 
860 1 47.3041 94.8767 27.562 
861 1 50.5068 93.0277 24.947 
862 1 52.1082 95.8013 24.947 
863 1 52.1082 97.6504 27.562 
864 1 50.5068 94.8767 27.562 
865 1 53.7095 93.0277 24.947 
866 1 55.3109 95.8013 24.947 
867 1 55.3109 97.6504 27.562 
868 1 53.7095 94.8767 27.562 
869 1 56.9123 93.0277 24.947 
870 1 58.5136 95.8013 24.947 
871 1 58.5136 97.6504 27.562 
872 1 56.9123 94.8767 27.562 
873 1 60.115 93.0277 24.947 
874 1 61.7164 95.8013 24.947 
875 1 61.7164 97.6504 27.562 
876 1 60.115 94.8767 27.562 
877 1 63.3177 93.0277 24.947 
878 1 64.9191 95.8013 24.947 
879 1 64.9191 97.6504 27.562 
880 1 63.3177 94.8767 27.562 
881 1 66.5204 93.0277 24.947 
882 1 68.1218 95.8013 24.947 
883 1 68.1218 97.6504 27.562 
884 1 66.5204 94.8767 27.562 
885 1 15.2768 98.5749 24.947 
886 1 16.8782 101.349 24.947 
887 1 16.8782 103.198 27.562 
888 1 15.2768 100.424 27.562 
889 1 18.4796 98.5749 24.947 
890 1 20.0809 101.349 24.947 
891 1 20.0809 103.198 27.562 
892 1 18.4796 100.424 27.562 
893 1 21.6823 98.5749 24.947 
894 1 23.2836 101.349 24.947 
895 1 23.2836 103.198 27.562 
896 1 21.6823 100.424 27.562 
897 1 24.885 98.5749 24.947 
898 1 26.4864 101.349 24.947 
899 1 26.4864 103.198 27.562 
900 1 24.885 100.424 27.562 
901 1 28.0877 98.5749 24.947 
902 1 29.6891 101.349 24.947 
903 1 29.6891 103.198 27.562 
904 1 28.0877 100.424 27.562 
905 1 31.2905 98.5749 24.947 
906 1 32.8918 101.349 24.947 
907 1 32.8918 103.198 27.562 
908 1 31.2905 100.424 27.562 
909 1 34.4932 98.5749 24.947 
910 1 36.0945 101.349 24.947 
911 1 36.0945 103.198 27.562 
912 1 34.4932 100.424 27.562 
913 1 37.6959 98.5749 24.947 
914 1 39.2973 101.349 24.947 
915 1 39.2973 103.198 27.562 
916 1 37.6959 100.424 27.562 
917 1 40.8986 98.5749 24.947 
918 1 42.5 101.349 24.947 
919 1 42.5 103.198 27.562 
920 1 40.8986 100.424 27.562 
921 1 44.1014 98.5749 24.947 
922 1 45.7027 101.349 24.947 
923 1 45.7027 103.198 27.562 
924 1 44.1014 100.424 27.562 
925 1 47.3041 98.5749 24.947 
926 1 48.9055 101.349 24.947 
927 1 48.9055 103.198 27.562 
928 1 47.3041 100.424 27.562 
929 1 50.5068 98.5749 24.947 
930 1 52.1082 101.349 24.947 
931 1 52.1082 103.198 27.562 
932 1 50.5068 100.424 27.562 
933 1 53.7095 98.5749 24.947 
934 1 55.3109 101.349 24.947 
935 1 55.3109 103.198 27.562 
936 1 53.7095 100.424 27.562 
937 1 56.9123 98.5749 24.947 
938 1 58.5136 101.349 24.947 
939 1 58.5136 103.198 27.562 
940 1 56.9123 100.424 27.562 
941 1 60.115 98.5749 24.947 
942 1 61.7164 101.349 24.947 
943 1 61.7164 103.198 27.562 
944 1 60.115 100.424 27.562 
945 1 63.3177 98.5749 24.947 
946 1 64.9191 101.349 24.947 
947 1 64.9191 103.198 27.562 
948 1 63.3177 100.424 27.562 
949 1 66.5204 98.5749 24.947 
950 1 68.1218 101.349 24.947 
951 1 68.1218 103.198 27.562 
952 1 66.5204 100.424 27.562 
953 1 15.2768 104.122 24.947 
954 1 16.8782 106.896 24.947 
955 1 16.8782 108.745 27.562 
956 1 15.2768 105.971 27.562 
957 1 18.4796 104.122 24.947 
958 1 20.0809 106.896 24.947 
959 1 20.0809 108.745 27.562 
960 1 18.4796 105.971 27.562 
961 1 21.6823 104.122 24.947 
962 1 23.2836 106.896 24.947 
963 1 23.2836 108.745 27.562 
964 1 21.6823 105.971 27.562 
965 1 24.885 104.122 24.947 
966 1 26.4864 106.896 24.947 
967 1 26.4864 108.745 27.562 
968 1 24.885 105.971 27.562 
969 1 28.0877 104.122 24.947 
970 1 29.6891 106.896 24.947 
971 1 29.6891 108.745 27.562 
972 1 28.0877 105.971 27.562 
973 1 31.2905 104.122 24.947 
974 1 32.8918 106.896 24.947 
975 1 32.8918 108.745 27.562 
976 1 31.2905 105.971 27.562 
977 1 34.4932 104.122 24.947 
978 1 36.0945 106.896 24.947 
979 1 36.0945 108.745 27.562 
980 1 34.4932 105.971 27.562 
981 1 37.6959 104.122 24.947 
982 1 39.2973 106.896 24.947 
983 1 39.2973 108.745 27.562 
984 1 37.6959 105.971 27.562 
985 1 40.8986 104.122 24.947 
986 1 42.5 106.896 24.947 
987 1 42.5 108.745 27.562 
988 1 40.8986 105.971 27.562 
989 1 44.1014 104.122 24.947 
990 1 45.7027 106.896 24.947 
991 1 45.7027 108.745 27.562 
992 1 44.1014 105.971 27.562 
993 1 47.3041 104.122 24.947 
994 1 48.9055 106.896 24.947 
995 1 48.9055 108.745 27.562 
996 1 47.3041 105.971 27.562 
997 1 50.5068 104.122 24.947 
998 1 52.1082 106.896 24.947 
999 1 52.1082 108.745 27.562 
1000 1 50.5068 105.971 27.562 
1001 1 53.7095 104.122 24.947 
1002 1 55.3109 106.896 24.947 
1003 1 55.3109 108.745 27.562 