ITEM: TIMESTEP
21
ITEM: NUMBER OF ATOMS
19652
ITEM: BOX BOUNDS pp pp pp
3.8542813089613106e+00 8.1145718691038581e+01
3.8542813089613106e+00 8.1145718691038581e+01
3.8542813089613106e+00 8.1145718691038581e+01
ITEM: ATOMS id type xu yu zu 
1 1 3.85428 3.85428 3.85428 
2 1 6.12756 6.12756 3.85428 
3 1 6.12756 3.85428 6.12756 
4 1 3.85428 6.12756 6.12756 
5 1 8.40084 3.85428 3.85428 
6 1 10.6741 6.12756 3.85428 
7 1 10.6741 3.85428 6.12756 
8 1 8.40084 6.12756 6.12756 
9 1 12.9474 3.85428 3.85428 
10 1 15.2207 6.12756 3.85428 
11 1 15.2207 3.85428 6.12756 
12 1 12.9474 6.12756 6.12756 
13 1 17.4939 3.85428 3.85428 
14 1 19.7672 6.12756 3.85428 
15 1 19.7672 3.85428 6.12756 
16 1 17.4939 6.12756 6.12756 
17 1 22.0405 3.85428 3.85428 
18 1 24.3138 6.12756 3.85428 
19 1 24.3138 3.85428 6.12756 
20 1 22.0405 6.12756 6.12756 
21 1 26.5871 3.85428 3.85428 
22 1 28.8603 6.12756 3.85428 
23 1 28.8603 3.85428 6.12756 
24 1 26.5871 6.12756 6.12756 
25 1 31.1336 3.85428 3.85428 
26 1 33.4069 6.12756 3.85428 
27 1 33.4069 3.85428 6.12756 
28 1 31.1336 6.12756 6.12756 
29 1 35.6802 3.85428 3.85428 
30 1 37.9534 6.12756 3.85428 
31 1 37.9534 3.85428 6.12756 
32 1 35.6802 6.12756 6.12756 
33 1 40.2267 3.85428 3.85428 
34 1 42.5 6.12756 3.85428 
35 1 42.5 3.85428 6.12756 
36 1 40.2267 6.12756 6.12756 
37 1 44.7733 3.85428 3.85428 
38 1 47.0466 6.12756 3.85428 
39 1 47.0466 3.85428 6.12756 
40 1 44.7733 6.12756 6.12756 
41 1 49.3198 3.85428 3.85428 
42 1 51.5931 6.12756 3.85428 
43 1 51.5931 3.85428 6.12756 
44 1 49.3198 6.12756 6.12756 
45 1 53.8664 3.85428 3.85428 
46 1 56.1397 6.12756 3.85428 
47 1 56.1397 3.85428 6.12756 
48 1 53.8664 6.12756 6.12756 
49 1 58.4129 3.85428 3.85428 
50 1 60.6862 6.12756 3.85428 
51 1 60.6862 3.85428 6.12756 
52 1 58.4129 6.12756 6.12756 
53 1 62.9595 3.85428 3.85428 
54 1 65.2328 6.12756 3.85428 
55 1 65.2328 3.85428 6.12756 
56 1 62.9595 6.12756 6.12756 
57 1 67.5061 3.85428 3.85428 
58 1 69.7793 6.12756 3.85428 
59 1 69.7793 3.85428 6.12756 
60 1 67.5061 6.12756 6.12756 
61 1 72.0526 3.85428 3.85428 
62 1 74.3259 6.12756 3.85428 
63 1 74.3259 3.85428 6.12756 
64 1 72.0526 6.12756 6.12756 
65 1 76.5992 3.85428 3.85428 
66 1 78.8724 6.12756 3.85428 
67 1 78.8724 3.85428 6.12756 
68 1 76.5992 6.12756 6.12756 
69 1 3.85428 8.40084 3.85428 
70 1 6.12756 10.6741 3.85428 
71 1 6.12756 8.40084 6.12756 
72 1 3.85428 10.6741 6.12756 
73 1 8.40084 8.40084 3.85428 
74 1 10.6741 10.6741 3.85428 
75 1 10.6741 8.40084 6.12756 
76 1 8.40084 10.6741 6.12756 
77 1 12.9474 8.40084 3.85428 
78 1 15.2207 10.6741 3.85428 
79 1 15.2207 8.40084 6.12756 
80 1 12.9474 10.6741 6.12756 
81 1 17.4939 8.40084 3.85428 
82 1 19.7672 10.6741 3.85428 
83 1 19.7672 8.40084 6.12756 
84 1 17.4939 10.6741 6.12756 
85 1 22.0405 8.40084 3.85428 
86 1 24.3138 10.6741 3.85428 
87 1 24.3138 8.40084 6.12756 
88 1 22.0405 10.6741 6.12756 
89 1 26.5871 8.40084 3.85428 
90 1 28.8603 10.6741 3.85428 
91 1 28.8603 8.40084 6.12756 
92 1 26.5871 10.6741 6.12756 
93 1 31.1336 8.40084 3.85428 
94 1 33.4069 10.6741 3.85428 
95 1 33.4069 8.40084 6.12756 
96 1 31.1336 10.6741 6.12756 
97 1 35.6802 8.40084 3.85428 
98 1 37.9534 10.6741 3.85428 
99 1 37.9534 8.40084 6.12756 
100 1 35.6802 10.6741 6.12756 
101 1 40.2267 8.40084 3.85428 
102 1 42.5 10.6741 3.85428 
103 1 42.5 8.40084 6.12756 
104 1 40.2267 10.6741 6.12756 
105 1 44.7733 8.40084 3.85428 
106 1 47.0466 10.6741 3.85428 
107 1 47.0466 8.40084 6.12756 
108 1 44.7733 10.6741 6.12756 
109 1 49.3198 8.40084 3.85428 
110 1 51.5931 10.6741 3.85428 
111 1 51.5931 8.40084 6.12756 
112 1 49.3198 10.6741 6.12756 
113 1 53.8664 8.40084 3.85428 
114 1 56.1397 10.6741 3.85428 
115 1 56.1397 8.40084 6.12756 
116 1 53.8664 10.6741 6.12756 
117 1 58.4129 8.40084 3.85428 
118 1 60.6862 10.6741 3.85428 
119 1 60.6862 8.40084 6.12756 
120 1 58.4129 10.6741 6.12756 
121 1 62.9595 8.40084 3.85428 
122 1 65.2328 10.6741 3.85428 
123 1 65.2328 8.40084 6.12756 
124 1 62.9595 10.6741 6.12756 
125 1 67.5061 8.40084 3.85428 
126 1 69.7793 10.6741 3.85428 
127 1 69.7793 8.40084 6.12756 
128 1 67.5061 10.6741 6.12756 
129 1 72.0526 8.40084 3.85428 
130 1 74.3259 10.6741 3.85428 
131 1 74.3259 8.40084 6.12756 
132 1 72.0526 10.6741 6.12756 
133 1 76.5992 8.40084 3.85428 
134 1 78.8724 10.6741 3.85428 
135 1 78.8724 8.40084 6.12756 
136 1 76.5992 10.6741 6.12756 
137 1 3.85428 12.9474 3.85428 
138 1 6.12756 15.2207 3.85428 
139 1 6.12756 12.9474 6.12756 
140 1 3.85428 15.2207 6.12756 
141 1 8.40084 12.9474 3.85428 
142 1 10.6741 15.2207 3.85428 
143 1 10.6741 12.9474 6.12756 
144 1 8.40084 15.2207 6.12756 
145 1 12.9474 12.9474 3.85428 
146 1 15.2207 15.2207 3.85428 
147 1 15.2207 12.9474 6.12756 
148 1 12.9474 15.2207 6.12756 
149 1 17.4939 12.9474 3.85428 
150 1 19.7672 15.2207 3.85428 
151 1 19.7672 12.9474 6.12756 
152 1 17.4939 15.2207 6.12756 
153 1 22.0405 12.9474 3.85428 
154 1 24.3138 15.2207 3.85428 
155 1 24.3138 12.9474 6.12756 
156 1 22.0405 15.2207 6.12756 
157 1 26.5871 12.9474 3.85428 
158 1 28.8603 15.2207 3.85428 
159 1 28.8603 12.9474 6.12756 
160 1 26.5871 15.2207 6.12756 
161 1 31.1336 12.9474 3.85428 
162 1 33.4069 15.2207 3.85428 
163 1 33.4069 12.9474 6.12756 
164 1 31.1336 15.2207 6.12756 
165 1 35.6802 12.9474 3.85428 
166 1 37.9534 15.2207 3.85428 
167 1 37.9534 12.9474 6.12756 
168 1 35.6802 15.2207 6.12756 
169 1 40.2267 12.9474 3.85428 
170 1 42.5 15.2207 3.85428 
171 1 42.5 12.9474 6.12756 
172 1 40.2267 15.2207 6.12756 
173 1 44.7733 12.9474 3.85428 
174 1 47.0466 15.2207 3.85428 
175 1 47.0466 12.9474 6.12756 
176 1 44.7733 15.2207 6.12756 
177 1 49.3198 12.9474 3.85428 
178 1 51.5931 15.2207 3.85428 
179 1 51.5931 12.9474 6.12756 
180 1 49.3198 15.2207 6.12756 
181 1 53.8664 12.9474 3.85428 
182 1 56.1397 15.2207 3.85428 
183 1 56.1397 12.9474 6.12756 
184 1 53.8664 15.2207 6.12756 
185 1 58.4129 12.9474 3.85428 
186 1 60.6862 15.2207 3.85428 
187 1 60.6862 12.9474 6.12756 
188 1 58.4129 15.2207 6.12756 
189 1 62.9595 12.9474 3.85428 
190 1 65.2328 15.2207 3.85428 
191 1 65.2328 12.9474 6.12756 
192 1 62.9595 15.2207 6.12756 
193 1 67.5061 12.9474 3.85428 
194 1 69.7793 15.2207 3.85428 
195 1 69.7793 12.9474 6.12756 
196 1 67.5061 15.2207 6.12756 
197 1 72.0526 12.9474 3.85428 
198 1 74.3259 15.2207 3.85428 
199 1 74.3259 12.9474 6.12756 
200 1 72.0526 15.2207 6.12756 
201 1 76.5992 12.9474 3.85428 
202 1 78.8724 15.2207 3.85428 
203 1 78.8724 12.9474 6.12756 
204 1 76.5992 15.2207 6.12756 
205 1 3.85428 17.4939 3.85428 
206 1 6.12756 19.7672 3.85428 
207 1 6.12756 17.4939 6.12756 
208 1 3.85428 19.7672 6.12756 
209 1 8.40084 17.4939 3.85428 
210 1 10.6741 19.7672 3.85428 
211 1 10.6741 17.4939 6.12756 
212 1 8.40084 19.7672 6.12756 
213 1 12.9474 17.4939 3.85428 
214 1 15.2207 19.7672 3.85428 
215 1 15.2207 17.4939 6.12756 
216 1 12.9474 19.7672 6.12756 
217 1 17.4939 17.4939 3.85428 
218 1 19.7672 19.7672 3.85428 
219 1 19.7672 17.4939 6.12756 
220 1 17.4939 19.7672 6.12756 
221 1 22.0405 17.4939 3.85428 
222 1 24.3138 19.7672 3.85428 
223 1 24.3138 17.4939 6.12756 
224 1 22.0405 19.7672 6.12756 
225 1 26.5871 17.4939 3.85428 
226 1 28.8603 19.7672 3.85428 
227 1 28.8603 17.4939 6.12756 
228 1 26.5871 19.7672 6.12756 
229 1 31.1336 17.4939 3.85428 
230 1 33.4069 19.7672 3.85428 
231 1 33.4069 17.4939 6.12756 
232 1 31.1336 19.7672 6.12756 
233 1 35.6802 17.4939 3.85428 
234 1 37.9534 19.7672 3.85428 
235 1 37.9534 17.4939 6.12756 
236 1 35.6802 19.7672 6.12756 
237 1 40.2267 17.4939 3.85428 
238 1 42.5 19.7672 3.85428 
239 1 42.5 17.4939 6.12756 
240 1 40.2267 19.7672 6.12756 
241 1 44.7733 17.4939 3.85428 
242 1 47.0466 19.7672 3.85428 
243 1 47.0466 17.4939 6.12756 
244 1 44.7733 19.7672 6.12756 
245 1 49.3198 17.4939 3.85428 
246 1 51.5931 19.7672 3.85428 
247 1 51.5931 17.4939 6.12756 
248 1 49.3198 19.7672 6.12756 
249 1 53.8664 17.4939 3.85428 
250 1 56.1397 19.7672 3.85428 
251 1 56.1397 17.4939 6.12756 
252 1 53.8664 19.7672 6.12756 
253 1 58.4129 17.4939 3.85428 
254 1 60.6862 19.7672 3.85428 
255 1 60.6862 17.4939 6.12756 
256 1 58.4129 19.7672 6.12756 
257 1 62.9595 17.4939 3.85428 
258 1 65.2328 19.7672 3.85428 
259 1 65.2328 17.4939 6.12756 
260 1 62.9595 19.7672 6.12756 
261 1 67.5061 17.4939 3.85428 
262 1 69.7793 19.7672 3.85428 
263 1 69.7793 17.4939 6.12756 
264 1 67.5061 19.7672 6.12756 
265 1 72.0526 17.4939 3.85428 
266 1 74.3259 19.7672 3.85428 
267 1 74.3259 17.4939 6.12756 
268 1 72.0526 19.7672 6.12756 
269 1 76.5992 17.4939 3.85428 
270 1 78.8724 19.7672 3.85428 
271 1 78.8724 17.4939 6.12756 
272 1 76.5992 19.7672 6.12756 
273 1 3.85428 22.0405 3.85428 
274 1 6.12756 24.3138 3.85428 
275 1 6.12756 22.0405 6.12756 
276 1 3.85428 24.3138 6.12756 
277 1 8.40084 22.0405 3.85428 
278 1 10.6741 24.3138 3.85428 
279 1 10.6741 22.0405 6.12756 
280 1 8.40084 24.3138 6.12756 
281 1 12.9474 22.0405 3.85428 
282 1 15.2207 24.3138 3.85428 
283 1 15.2207 22.0405 6.12756 
284 1 12.9474 24.3138 6.12756 
285 1 17.4939 22.0405 3.85428 
286 1 19.7672 24.3138 3.85428 
287 1 19.7672 22.0405 6.12756 
288 1 17.4939 24.3138 6.12756 
289 1 22.0405 22.0405 3.85428 
290 1 24.3138 24.3138 3.85428 
291 1 24.3138 22.0405 6.12756 
292 1 22.0405 24.3138 6.12756 
293 1 26.5871 22.0405 3.85428 
294 1 28.8603 24.3138 3.85428 
295 1 28.8603 22.0405 6.12756 
296 1 26.5871 24.3138 6.12756 
297 1 31.1336 22.0405 3.85428 
298 1 33.4069 24.3138 3.85428 
299 1 33.4069 22.0405 6.12756 
300 1 31.1336 24.3138 6.12756 
301 1 35.6802 22.0405 3.85428 
302 1 37.9534 24.3138 3.85428 
303 1 37.9534 22.0405 6.12756 
304 1 35.6802 24.3138 6.12756 
305 1 40.2267 22.0405 3.85428 
306 1 42.5 24.3138 3.85428 
307 1 42.5 22.0405 6.12756 
308 1 40.2267 24.3138 6.12756 
309 1 44.7733 22.0405 3.85428 
310 1 47.0466 24.3138 3.85428 
311 1 47.0466 22.0405 6.12756 
312 1 44.7733 24.3138 6.12756 
313 1 49.3198 22.0405 3.85428 
314 1 51.5931 24.3138 3.85428 
315 1 51.5931 22.0405 6.12756 
316 1 49.3198 24.3138 6.12756 
317 1 53.8664 22.0405 3.85428 
318 1 56.1397 24.3138 3.85428 
319 1 56.1397 22.0405 6.12756 
320 1 53.8664 24.3138 6.12756 
321 1 58.4129 22.0405 3.85428 
322 1 60.6862 24.3138 3.85428 
323 1 60.6862 22.0405 6.12756 
324 1 58.4129 24.3138 6.12756 
325 1 62.9595 22.0405 3.85428 
326 1 65.2328 24.3138 3.85428 
327 1 65.2328 22.0405 6.12756 
328 1 62.9595 24.3138 6.12756 
329 1 67.5061 22.0405 3.85428 
330 1 69.7793 24.3138 3.85428 
331 1 69.7793 22.0405 6.12756 
332 1 67.5061 24.3138 6.12756 
333 1 72.0526 22.0405 3.85428 
334 1 74.3259 24.3138 3.85428 
335 1 74.3259 22.0405 6.12756 
336 1 72.0526 24.3138 6.12756 
337 1 76.5992 22.0405 3.85428 
338 1 78.8724 24.3138 3.85428 
339 1 78.8724 22.0405 6.12756 
340 1 76.5992 24.3138 6.12756 
341 1 3.85428 26.5871 3.85428 
342 1 6.12756 28.8603 3.85428 
343 1 6.12756 26.5871 6.12756 
344 1 3.85428 28.8603 6.12756 
345 1 8.40084 26.5871 3.85428 
346 1 10.6741 28.8603 3.85428 
347 1 10.6741 26.5871 6.12756 
348 1 8.40084 28.8603 6.12756 
349 1 12.9474 26.5871 3.85428 
350 1 15.2207 28.8603 3.85428 
351 1 15.2207 26.5871 6.12756 
352 1 12.9474 28.8603 6.12756 
353 1 17.4939 26.5871 3.85428 
354 1 19.7672 28.8603 3.85428 
355 1 19.7672 26.5871 6.12756 
356 1 17.4939 28.8603 6.12756 
357 1 22.0405 26.5871 3.85428 
358 1 24.3138 28.8603 3.85428 
359 1 24.3138 26.5871 6.12756 
360 1 22.0405 28.8603 6.12756 
361 1 26.5871 26.5871 3.85428 
362 1 28.8603 28.8603 3.85428 
363 1 28.8603 26.5871 6.12756 
364 1 26.5871 28.8603 6.12756 
365 1 31.1336 26.5871 3.85428 
366 1 33.4069 28.8603 3.85428 
367 1 33.4069 26.5871 6.12756 
368 1 31.1336 28.8603 6.12756 
369 1 35.6802 26.5871 3.85428 
370 1 37.9534 28.8603 3.85428 
371 1 37.9534 26.5871 6.12756 
372 1 35.6802 28.8603 6.12756 
373 1 40.2267 26.5871 3.85428 
374 1 42.5 28.8603 3.85428 
375 1 42.5 26.5871 6.12756 
376 1 40.2267 28.8603 6.12756 
377 1 44.7733 26.5871 3.85428 
378 1 47.0466 28.8603 3.85428 
379 1 47.0466 26.5871 6.12756 
380 1 44.7733 28.8603 6.12756 
381 1 49.3198 26.5871 3.85428 
382 1 51.5931 28.8603 3.85428 
383 1 51.5931 26.5871 6.12756 
384 1 49.3198 28.8603 6.12756 
385 1 53.8664 26.5871 3.85428 
386 1 56.1397 28.8603 3.85428 
387 1 56.1397 26.5871 6.12756 
388 1 53.8664 28.8603 6.12756 
389 1 58.4129 26.5871 3.85428 
390 1 60.6862 28.8603 3.85428 
391 1 60.6862 26.5871 6.12756 
392 1 58.4129 28.8603 6.12756 
393 1 62.9595 26.5871 3.85428 
394 1 65.2328 28.8603 3.85428 
395 1 65.2328 26.5871 6.12756 
396 1 62.9595 28.8603 6.12756 
397 1 67.5061 26.5871 3.85428 
398 1 69.7793 28.8603 3.85428 
399 1 69.7793 26.5871 6.12756 
400 1 67.5061 28.8603 6.12756 
401 1 72.0526 26.5871 3.85428 
402 1 74.3259 28.8603 3.85428 
403 1 74.3259 26.5871 6.12756 
404 1 72.0526 28.8603 6.12756 
405 1 76.5992 26.5871 3.85428 
406 1 78.8724 28.8603 3.85428 
407 1 78.8724 26.5871 6.12756 
408 1 76.5992 28.8603 6.12756 
409 1 3.85428 31.1336 3.85428 
410 1 6.12756 33.4069 3.85428 
411 1 6.12756 31.1336 6.12756 
412 1 3.85428 33.4069 6.12756 
413 1 8.40084 31.1336 3.85428 
414 1 10.6741 33.4069 3.85428 
415 1 10.6741 31.1336 6.12756 
416 1 8.40084 33.4069 6.12756 
417 1 12.9474 31.1336 3.85428 
418 1 15.2207 33.4069 3.85428 
419 1 15.2207 31.1336 6.12756 
420 1 12.9474 33.4069 6.12756 
421 1 17.4939 31.1336 3.85428 
422 1 19.7672 33.4069 3.85428 
423 1 19.7672 31.1336 6.12756 
424 1 17.4939 33.4069 6.12756 
425 1 22.0405 31.1336 3.85428 
426 1 24.3138 33.4069 3.85428 
427 1 24.3138 31.1336 6.12756 
428 1 22.0405 33.4069 6.12756 
429 1 26.5871 31.1336 3.85428 
430 1 28.8603 33.4069 3.85428 
431 1 28.8603 31.1336 6.12756 
432 1 26.5871 33.4069 6.12756 
433 1 31.1336 31.1336 3.85428 
434 1 33.4069 33.4069 3.85428 
435 1 33.4069 31.1336 6.12756 
436 1 31.1336 33.4069 6.12756 
437 1 35.6802 31.1336 3.85428 
438 1 37.9534 33.4069 3.85428 
439 1 37.9534 31.1336 6.12756 
440 1 35.6802 33.4069 6.12756 
441 1 40.2267 31.1336 3.85428 
442 1 42.5 33.4069 3.85428 
443 1 42.5 31.1336 6.12756 
444 1 40.2267 33.4069 6.12756 
445 1 44.7733 31.1336 3.85428 
446 1 47.0466 33.4069 3.85428 
447 1 47.0466 31.1336 6.12756 
448 1 44.7733 33.4069 6.12756 
449 1 49.3198 31.1336 3.85428 
450 1 51.5931 33.4069 3.85428 
451 1 51.5931 31.1336 6.12756 
452 1 49.3198 33.4069 6.12756 
453 1 53.8664 31.1336 3.85428 
454 1 56.1397 33.4069 3.85428 
455 1 56.1397 31.1336 6.12756 
456 1 53.8664 33.4069 6.12756 
457 1 58.4129 31.1336 3.85428 
458 1 60.6862 33.4069 3.85428 
459 1 60.6862 31.1336 6.12756 
460 1 58.4129 33.4069 6.12756 
461 1 62.9595 31.1336 3.85428 
462 1 65.2328 33.4069 3.85428 
463 1 65.2328 31.1336 6.12756 
464 1 62.9595 33.4069 6.12756 
465 1 67.5061 31.1336 3.85428 
466 1 69.7793 33.4069 3.85428 
467 1 69.7793 31.1336 6.12756 
468 1 67.5061 33.4069 6.12756 
469 1 72.0526 31.1336 3.85428 
470 1 74.3259 33.4069 3.85428 
471 1 74.3259 31.1336 6.12756 
472 1 72.0526 33.4069 6.12756 
473 1 76.5992 31.1336 3.85428 
474 1 78.8724 33.4069 3.85428 
475 1 78.8724 31.1336 6.12756 
476 1 76.5992 33.4069 6.12756 
477 1 3.85428 35.6802 3.85428 
478 1 6.12756 37.9534 3.85428 
479 1 6.12756 35.6802 6.12756 
480 1 3.85428 37.9534 6.12756 
481 1 8.40084 35.6802 3.85428 
482 1 10.6741 37.9534 3.85428 
483 1 10.6741 35.6802 6.12756 
484 1 8.40084 37.9534 6.12756 
485 1 12.9474 35.6802 3.85428 
486 1 15.2207 37.9534 3.85428 
487 1 15.2207 35.6802 6.12756 
488 1 12.9474 37.9534 6.12756 
489 1 17.4939 35.6802 3.85428 
490 1 19.7672 37.9534 3.85428 
491 1 19.7672 35.6802 6.12756 
492 1 17.4939 37.9534 6.12756 
493 1 22.0405 35.6802 3.85428 
494 1 24.3138 37.9534 3.85428 
495 1 24.3138 35.6802 6.12756 
496 1 22.0405 37.9534 6.12756 
497 1 26.5871 35.6802 3.85428 
498 1 28.8603 37.9534 3.85428 
499 1 28.8603 35.6802 6.12756 
500 1 26.5871 37.9534 6.12756 
501 1 31.1336 35.6802 3.85428 
502 1 33.4069 37.9534 3.85428 
503 1 33.4069 35.6802 6.12756 
504 1 31.1336 37.9534 6.12756 
505 1 35.6802 35.6802 3.85428 
506 1 37.9534 37.9534 3.85428 
507 1 37.9534 35.6802 6.12756 
508 1 35.6802 37.9534 6.12756 
509 1 40.2267 35.6802 3.85428 
510 1 42.5 37.9534 3.85428 
511 1 42.5 35.6802 6.12756 
512 1 40.2267 37.9534 6.12756 
513 1 44.7733 35.6802 3.85428 
514 1 47.0466 37.9534 3.85428 
515 1 47.0466 35.6802 6.12756 
516 1 44.7733 37.9534 6.12756 
517 1 49.3198 35.6802 3.85428 
518 1 51.5931 37.9534 3.85428 
519 1 51.5931 35.6802 6.12756 
520 1 49.3198 37.9534 6.12756 
521 1 53.8664 35.6802 3.85428 
522 1 56.1397 37.9534 3.85428 
523 1 56.1397 35.6802 6.12756 
524 1 53.8664 37.9534 6.12756 
525 1 58.4129 35.6802 3.85428 
526 1 60.6862 37.9534 3.85428 
527 1 60.6862 35.6802 6.12756 
528 1 58.4129 37.9534 6.12756 
529 1 62.9595 35.6802 3.85428 
530 1 65.2328 37.9534 3.85428 
531 1 65.2328 35.6802 6.12756 
532 1 62.9595 37.9534 6.12756 
533 1 67.5061 35.6802 3.85428 
534 1 69.7793 37.9534 3.85428 
535 1 69.7793 35.6802 6.12756 
536 1 67.5061 37.9534 6.12756 
537 1 72.0526 35.6802 3.85428 
538 1 74.3259 37.9534 3.85428 
539 1 74.3259 35.6802 6.12756 
540 1 72.0526 37.9534 6.12756 
541 1 76.5992 35.6802 3.85428 
542 1 78.8724 37.9534 3.85428 
543 1 78.8724 35.6802 6.12756 
544 1 76.5992 37.9534 6.12756 
545 1 3.85428 40.2267 3.85428 
546 1 6.12756 42.5 3.85428 
547 1 6.12756 40.2267 6.12756 
548 1 3.85428 42.5 6.12756 
549 1 8.40084 40.2267 3.85428 
550 1 10.6741 42.5 3.85428 
551 1 10.6741 40.2267 6.12756 
552 1 8.40084 42.5 6.12756 
553 1 12.9474 40.2267 3.85428 
554 1 15.2207 42.5 3.85428 
555 1 15.2207 40.2267 6.12756 
556 1 12.9474 42.5 6.12756 
557 1 17.4939 40.2267 3.85428 
558 1 19.7672 42.5 3.85428 
559 1 19.7672 40.2267 6.12756 
560 1 17.4939 42.5 6.12756 
561 1 22.0405 40.2267 3.85428 
562 1 24.3138 42.5 3.85428 
563 1 24.3138 40.2267 6.12756 
564 1 22.0405 42.5 6.12756 
565 1 26.5871 40.2267 3.85428 
566 1 28.8603 42.5 3.85428 
567 1 28.8603 40.2267 6.12756 
568 1 26.5871 42.5 6.12756 
569 1 31.1336 40.2267 3.85428 
570 1 33.4069 42.5 3.85428 
571 1 33.4069 40.2267 6.12756 
572 1 31.1336 42.5 6.12756 
573 1 35.6802 40.2267 3.85428 
574 1 37.9534 42.5 3.85428 
575 1 37.9534 40.2267 6.12756 
576 1 35.6802 42.5 6.12756 
577 1 40.2267 40.2267 3.85428 
578 1 42.5 42.5 3.85428 
579 1 42.5 40.2267 6.12756 
580 1 40.2267 42.5 6.12756 
581 1 44.7733 40.2267 3.85428 
582 1 47.0466 42.5 3.85428 
583 1 47.0466 40.2267 6.12756 
584 1 44.7733 42.5 6.12756 
585 1 49.3198 40.2267 3.85428 
586 1 51.5931 42.5 3.85428 
587 1 51.5931 40.2267 6.12756 
588 1 49.3198 42.5 6.12756 
589 1 53.8664 40.2267 3.85428 
590 1 56.1397 42.5 3.85428 
591 1 56.1397 40.2267 6.12756 
592 1 53.8664 42.5 6.12756 
593 1 58.4129 40.2267 3.85428 
594 1 60.6862 42.5 3.85428 
595 1 60.6862 40.2267 6.12756 
596 1 58.4129 42.5 6.12756 
597 1 62.9595 40.2267 3.85428 
598 1 65.2328 42.5 3.85428 
599 1 65.2328 40.2267 6.12756 
600 1 62.9595 42.5 6.12756 
601 1 67.5061 40.2267 3.85428 
602 1 69.7793 42.5 3.85428 
603 1 69.7793 40.2267 6.12756 
604 1 67.5061 42.5 6.12756 
605 1 72.0526 40.2267 3.85428 
606 1 74.3259 42.5 3.85428 
607 1 74.3259 40.2267 6.12756 
608 1 72.0526 42.5 6.12756 
609 1 76.5992 40.2267 3.85428 
610 1 78.8724 42.5 3.85428 
611 1 78.8724 40.2267 6.12756 
612 1 76.5992 42.5 6.12756 
613 1 3.85428 44.7733 3.85428 
614 1 6.12756 47.0466 3.85428 
615 1 6.12756 44.7733 6.12756 
616 1 3.85428 47.0466 6.12756 
617 1 8.40084 44.7733 3.85428 
618 1 10.6741 47.0466 3.85428 
619 1 10.6741 44.7733 6.12756 
620 1 8.40084 47.0466 6.12756 
621 1 12.9474 44.7733 3.85428 
622 1 15.2207 47.0466 3.85428 
623 1 15.2207 44.7733 6.12756 
624 1 12.9474 47.0466 6.12756 
625 1 17.4939 44.7733 3.85428 
626 1 19.7672 47.0466 3.85428 
627 1 19.7672 44.7733 6.12756 
628 1 17.4939 47.0466 6.12756 
629 1 22.0405 44.7733 3.85428 
630 1 24.3138 47.0466 3.85428 
631 1 24.3138 44.7733 6.12756 
632 1 22.0405 47.0466 6.12756 
633 1 26.5871 44.7733 3.85428 
634 1 28.8603 47.0466 3.85428 
635 1 28.8603 44.7733 6.12756 
636 1 26.5871 47.0466 6.12756 
637 1 31.1336 44.7733 3.85428 
638 1 33.4069 47.0466 3.85428 
639 1 33.4069 44.7733 6.12756 
640 1 31.1336 47.0466 6.12756 
641 1 35.6802 44.7733 3.85428 
642 1 37.9534 47.0466 3.85428 
643 1 37.9534 44.7733 6.12756 
644 1 35.6802 47.0466 6.12756 
645 1 40.2267 44.7733 3.85428 
646 1 42.5 47.0466 3.85428 
647 1 42.5 44.7733 6.12756 
648 1 40.2267 47.0466 6.12756 
649 1 44.7733 44.7733 3.85428 
650 1 47.0466 47.0466 3.85428 
651 1 47.0466 44.7733 6.12756 
652 1 44.7733 47.0466 6.12756 
653 1 49.3198 44.7733 3.85428 
654 1 51.5931 47.0466 3.85428 
655 1 51.5931 44.7733 6.12756 
656 1 49.3198 47.0466 6.12756 
657 1 53.8664 44.7733 3.85428 
658 1 56.1397 47.0466 3.85428 
659 1 56.1397 44.7733 6.12756 
660 1 53.8664 47.0466 6.12756 
661 1 58.4129 44.7733 3.85428 
662 1 60.6862 47.0466 3.85428 
663 1 60.6862 44.7733 6.12756 
664 1 58.4129 47.0466 6.12756 
665 1 62.9595 44.7733 3.85428 
666 1 65.2328 47.0466 3.85428 
667 1 65.2328 44.7733 6.12756 
668 1 62.9595 47.0466 6.12756 
669 1 67.5061 44.7733 3.85428 
670 1 69.7793 47.0466 3.85428 
671 1 69.7793 44.7733 6.12756 
672 1 67.5061 47.0466 6.12756 
673 1 72.0526 44.7733 3.85428 
674 1 74.3259 47.0466 3.85428 
675 1 74.3259 44.7733 6.12756 
676 1 72.0526 47.0466 6.12756 
677 1 76.5992 44.7733 3.85428 
678 1 78.8724 47.0466 3.85428 
679 1 78.8724 44.7733 6.12756 
680 1 76.5992 47.0466 6.12756 
681 1 3.85428 49.3198 3.85428 
682 1 6.12756 51.5931 3.85428 
683 1 6.12756 49.3198 6.12756 
684 1 3.85428 51.5931 6.12756 
685 1 8.40084 49.3198 3.85428 
686 1 10.6741 51.5931 3.85428 
687 1 10.6741 49.3198 6.12756 
688 1 8.40084 51.5931 6.12756 
689 1 12.9474 49.3198 3.85428 
690 1 15.2207 51.5931 3.85428 
691 1 15.2207 49.3198 6.12756 
692 1 12.9474 51.5931 6.12756 
693 1 17.4939 49.3198 3.85428 
694 1 19.7672 51.5931 3.85428 
695 1 19.7672 49.3198 6.12756 
696 1 17.4939 51.5931 6.12756 
697 1 22.0405 49.3198 3.85428 
698 1 24.3138 51.5931 3.85428 
699 1 24.3138 49.3198 6.12756 
700 1 22.0405 51.5931 6.12756 
701 1 26.5871 49.3198 3.85428 
702 1 28.8603 51.5931 3.85428 
703 1 28.8603 49.3198 6.12756 
704 1 26.5871 51.5931 6.12756 
705 1 31.1336 49.3198 3.85428 
706 1 33.4069 51.5931 3.85428 
707 1 33.4069 49.3198 6.12756 
708 1 31.1336 51.5931 6.12756 
709 1 35.6802 49.3198 3.85428 
710 1 37.9534 51.5931 3.85428 
711 1 37.9534 49.3198 6.12756 
712 1 35.6802 51.5931 6.12756 
713 1 40.2267 49.3198 3.85428 
714 1 42.5 51.5931 3.85428 
715 1 42.5 49.3198 6.12756 
716 1 40.2267 51.5931 6.12756 
717 1 44.7733 49.3198 3.85428 
718 1 47.0466 51.5931 3.85428 
719 1 47.0466 49.3198 6.12756 
720 1 44.7733 51.5931 6.12756 
721 1 49.3198 49.3198 3.85428 
722 1 51.5931 51.5931 3.85428 
723 1 51.5931 49.3198 6.12756 
724 1 49.3198 51.5931 6.12756 
725 1 53.8664 49.3198 3.85428 
726 1 56.1397 51.5931 3.85428 
727 1 56.1397 49.3198 6.12756 
728 1 53.8664 51.5931 6.12756 
729 1 58.4129 49.3198 3.85428 
730 1 60.6862 51.5931 3.85428 
731 1 60.6862 49.3198 6.12756 
732 1 58.4129 51.5931 6.12756 
733 1 62.9595 49.3198 3.85428 
734 1 65.2328 51.5931 3.85428 
735 1 65.2328 49.3198 6.12756 
736 1 62.9595 51.5931 6.12756 
737 1 67.5061 49.3198 3.85428 
738 1 69.7793 51.5931 3.85428 
739 1 69.7793 49.3198 6.12756 
740 1 67.5061 51.5931 6.12756 
741 1 72.0526 49.3198 3.85428 
742 1 74.3259 51.5931 3.85428 
743 1 74.3259 49.3198 6.12756 
744 1 72.0526 51.5931 6.12756 
745 1 76.5992 49.3198 3.85428 
746 1 78.8724 51.5931 3.85428 
747 1 78.8724 49.3198 6.12756 
748 1 76.5992 51.5931 6.12756 
749 1 3.85428 53.8664 3.85428 
750 1 6.12756 56.1397 3.85428 
751 1 6.12756 53.8664 6.12756 
752 1 3.85428 56.1397 6.12756 
753 1 8.40084 53.8664 3.85428 
754 1 10.6741 56.1397 3.85428 
755 1 10.6741 53.8664 6.12756 
756 1 8.40084 56.1397 6.12756 
757 1 12.9474 53.8664 3.85428 
758 1 15.2207 56.1397 3.85428 
759 1 15.2207 53.8664 6.12756 
760 1 12.9474 56.1397 6.12756 
761 1 17.4939 53.8664 3.85428 
762 1 19.7672 56.1397 3.85428 
763 1 19.7672 53.8664 6.12756 
764 1 17.4939 56.1397 6.12756 
765 1 22.0405 53.8664 3.85428 
766 1 24.3138 56.1397 3.85428 
767 1 24.3138 53.8664 6.12756 
768 1 22.0405 56.1397 6.12756 
769 1 26.5871 53.8664 3.85428 
770 1 28.8603 56.1397 3.85428 
771 1 28.8603 53.8664 6.12756 
772 1 26.5871 56.1397 6.12756 
773 1 31.1336 53.8664 3.85428 
774 1 33.4069 56.1397 3.85428 
775 1 33.4069 53.8664 6.12756 
776 1 31.1336 56.1397 6.12756 
777 1 35.6802 53.8664 3.85428 
778 1 37.9534 56.1397 3.85428 
779 1 37.9534 53.8664 6.12756 
780 1 35.6802 56.1397 6.12756 
781 1 40.2267 53.8664 3.85428 
782 1 42.5 56.1397 3.85428 
783 1 42.5 53.8664 6.12756 
784 1 40.2267 56.1397 6.12756 
785 1 44.7733 53.8664 3.85428 
786 1 47.0466 56.1397 3.85428 
787 1 47.0466 53.8664 6.12756 
788 1 44.7733 56.1397 6.12756 
789 1 49.3198 53.8664 3.85428 
790 1 51.5931 56.1397 3.85428 
791 1 51.5931 53.8664 6.12756 
792 1 49.3198 56.1397 6.12756 
793 1 53.8664 53.8664 3.85428 
794 1 56.1397 56.1397 3.85428 
795 1 56.1397 53.8664 6.12756 
796 1 53.8664 56.1397 6.12756 
797 1 58.4129 53.8664 3.85428 
798 1 60.6862 56.1397 3.85428 
799 1 60.6862 53.8664 6.12756 
800 1 58.4129 56.1397 6.12756 
801 1 62.9595 53.8664 3.85428 
802 1 65.2328 56.1397 3.85428 
803 1 65.2328 53.8664 6.12756 
804 1 62.9595 56.1397 6.12756 
805 1 67.5061 53.8664 3.85428 
806 1 69.7793 56.1397 3.85428 
807 1 69.7793 53.8664 6.12756 
808 1 67.5061 56.1397 6.12756 
809 1 72.0526 53.8664 3.85428 
810 1 74.3259 56.1397 3.85428 
811 1 74.3259 53.8664 6.12756 
812 1 72.0526 56.1397 6.12756 
813 1 76.5992 53.8664 3.85428 
814 1 78.8724 56.1397 3.85428 
815 1 78.8724 53.8664 6.12756 
816 1 76.5992 56.1397 6.12756 
817 1 3.85428 58.4129 3.85428 
818 1 6.12756 60.6862 3.85428 
819 1 6.12756 58.4129 6.12756 
820 1 3.85428 60.6862 6.12756 
821 1 8.40084 58.4129 3.85428 
822 1 10.6741 60.6862 3.85428 
823 1 10.6741 58.4129 6.12756 
824 1 8.40084 60.6862 6.12756 
825 1 12.9474 58.4129 3.85428 
826 1 15.2207 60.6862 3.85428 
827 1 15.2207 58.4129 6.12756 
828 1 12.9474 60.6862 6.12756 
829 1 17.4939 58.4129 3.85428 
830 1 19.7672 60.6862 3.85428 
831 1 19.7672 58.4129 6.12756 
832 1 17.4939 60.6862 6.12756 
833 1 22.0405 58.4129 3.85428 
834 1 24.3138 60.6862 3.85428 
835 1 24.3138 58.4129 6.12756 
836 1 22.0405 60.6862 6.12756 
837 1 26.5871 58.4129 3.85428 
838 1 28.8603 60.6862 3.85428 
839 1 28.8603 58.4129 6.12756 
840 1 26.5871 60.6862 6.12756 
841 1 31.1336 58.4129 3.85428 
842 1 33.4069 60.6862 3.85428 
843 1 33.4069 58.4129 6.12756 
844 1 31.1336 60.6862 6.12756 
845 1 35.6802 58.4129 3.85428 
846 1 37.9534 60.6862 3.85428 
847 1 37.9534 58.4129 6.12756 
848 1 35.6802 60.6862 6.12756 
849 1 40.2267 58.4129 3.85428 
850 1 42.5 60.6862 3.85428 
851 1 42.5 58.4129 6.12756 
852 1 40.2267 60.6862 6.12756 
853 1 44.7733 58.4129 3.85428 
854 1 47.0466 60.6862 3.85428 
855 1 47.0466 58.4129 6.12756 
856 1 44.7733 60.6862 6.12756 
857 1 49.3198 58.4129 3.85428 
858 1 51.5931 60.6862 3.85428 
859 1 51.5931 58.4129 6.12756 
860 1 49.3198 60.6862 6.12756 
861 1 53.8664 58.4129 3.85428 
862 1 56.1397 60.6862 3.85428 
863 1 56.1397 58.4129 6.12756 
864 1 53.8664 60.6862 6.12756 
865 1 58.4129 58.4129 3.85428 
866 1 60.6862 60.6862 3.85428 
867 1 60.6862 58.4129 6.12756 
868 1 58.4129 60.6862 6.12756 
869 1 62.9595 58.4129 3.85428 
870 1 65.2328 60.6862 3.85428 
871 1 65.2328 58.4129 6.12756 
872 1 62.9595 60.6862 6.12756 
873 1 67.5061 58.4129 3.85428 
874 1 69.7793 60.6862 3.85428 
875 1 69.7793 58.4129 6.12756 
876 1 67.5061 60.6862 6.12756 
877 1 72.0526 58.4129 3.85428 
878 1 74.3259 60.6862 3.85428 
879 1 74.3259 58.4129 6.12756 
880 1 72.0526 60.6862 6.12756 
881 1 76.5992 58.4129 3.85428 
882 1 78.8724 60.6862 3.85428 
883 1 78.8724 58.4129 6.12756 
884 1 76.5992 60.6862 6.12756 
885 1 3.85428 62.9595 3.85428 
886 1 6.12756 65.2328 3.85428 
887 1 6.12756 62.9595 6.12756 
888 1 3.85428 65.2328 6.12756 
889 1 8.40084 62.9595 3.85428 
890 1 10.6741 65.2328 3.85428 
891 1 10.6741 62.9595 6.12756 
892 1 8.40084 65.2328 6.12756 
893 1 12.9474 62.9595 3.85428 
894 1 15.2207 65.2328 3.85428 
895 1 15.2207 62.9595 6.12756 
896 1 12.9474 65.2328 6.12756 
897 1 17.4939 62.9595 3.85428 
898 1 19.7672 65.2328 3.85428 
899 1 19.7672 62.9595 6.12756 
900 1 17.4939 65.2328 6.12756 
901 1 22.0405 62.9595 3.85428 
902 1 24.3138 65.2328 3.85428 
903 1 24.3138 62.9595 6.12756 
904 1 22.0405 65.2328 6.12756 
905 1 26.5871 62.9595 3.85428 
906 1 28.8603 65.2328 3.85428 
907 1 28.8603 62.9595 6.12756 
908 1 26.5871 65.2328 6.12756 
909 1 31.1336 62.9595 3.85428 
910 1 33.4069 65.2328 3.85428 
911 1 33.4069 62.9595 6.12756 
912 1 31.1336 65.2328 6.12756 
913 1 35.6802 62.9595 3.85428 
914 1 37.9534 65.2328 3.85428 
915 1 37.9534 62.9595 6.12756 
916 1 35.6802 65.2328 6.12756 
917 1 40.2267 62.9595 3.85428 
918 1 42.5 65.2328 3.85428 
919 1 42.5 62.9595 6.12756 
920 1 40.2267 65.2328 6.12756 
921 1 44.7733 62.9595 3.85428 
922 1 47.0466 65.2328 3.85428 
923 1 47.0466 62.9595 6.12756 
924 1 44.7733 65.2328 6.12756 
925 1 49.3198 62.9595 3.85428 
926 1 51.5931 65.2328 3.85428 
927 1 51.5931 62.9595 6.12756 
928 1 49.3198 65.2328 6.12756 
929 1 53.8664 62.9595 3.85428 
930 1 56.1397 65.2328 3.85428 
931 1 56.1397 62.9595 6.12756 
932 1 53.8664 65.2328 6.12756 
933 1 58.4129 62.9595 3.85428 
934 1 60.6862 65.2328 3.85428 
935 1 60.6862 62.9595 6.12756 
936 1 58.4129 65.2328 6.12756 
937 1 62.9595 62.9595 3.85428 
938 1 65.2328 65.2328 3.85428 
939 1 65.2328 62.9595 6.12756 
940 1 62.9595 65.2328 6.12756 
941 1 67.5061 62.9595 3.85428 
942 1 69.7793 65.2328 3.85428 
943 1 69.7793 62.9595 6.12756 
944 1 67.5061 65.2328 6.12756 
945 1 72.0526 62.9595 3.85428 
946 1 74.3259 65.2328 3.85428 
947 1 74.3259 62.9595 6.12756 
948 1 72.0526 65.2328 6.12756 
949 1 76.5992 62.9595 3.85428 
950 1 78.8724 65.2328 3.85428 
951 1 78.8724 62.9595 6.12756 
952 1 76.5992 65.2328 6.12756 
953 1 3.85428 67.5061 3.85428 
954 1 6.12756 69.7793 3.85428 
955 1 6.12756 67.5061 6.12756 
956 1 3.85428 69.7793 6.12756 
957 1 8.40084 67.5061 3.85428 
958 1 10.6741 69.7793 3.85428 
959 1 10.6741 67.5061 6.12756 
960 1 8.40084 69.7793 6.12756 
961 1 12.9474 67.5061 3.85428 
962 1 15.2207 69.7793 3.85428 
963 1 15.2207 67.5061 6.12756 
964 1 12.9474 69.7793 6.12756 
965 1 17.4939 67.5061 3.85428 
966 1 19.7672 69.7793 3.85428 
967 1 19.7672 67.5061 6.12756 
968 1 17.4939 69.7793 6.12756 
969 1 22.0405 67.5061 3.85428 