ITEM: TIMESTEP
43
ITEM: NUMBER OF ATOMS
19652
ITEM: BOX BOUNDS pp pp pp
8.3756862392818121e+00 7.6624313760717982e+01
8.3756862392818121e+00 7.6624313760717982e+01
8.3756862392818121e+00 7.6624313760717982e+01
ITEM: ATOMS id type xu yu zu 
1 2 8.37569 8.37569 8.37569 
2 2 10.383 10.383 8.37569 
3 2 10.383 8.37569 10.383 
4 2 8.37569 10.383 10.383 
5 2 12.3903 8.37569 8.37569 
6 2 14.3976 10.383 8.37569 
7 2 14.3976 8.37569 10.383 
8 2 12.3903 10.383 10.383 
9 2 16.4049 8.37569 8.37569 
10 2 18.4122 10.383 8.37569 
11 2 18.4122 8.37569 10.383 
12 2 16.4049 10.383 10.383 
13 2 20.4196 8.37569 8.37569 
14 2 22.4269 10.383 8.37569 
15 2 22.4269 8.37569 10.383 
16 2 20.4196 10.383 10.383 
17 2 24.4342 8.37569 8.37569 
18 2 26.4415 10.383 8.37569 
19 2 26.4415 8.37569 10.383 
20 2 24.4342 10.383 10.383 
21 2 28.4488 8.37569 8.37569 
22 2 30.4561 10.383 8.37569 
23 2 30.4561 8.37569 10.383 
24 2 28.4488 10.383 10.383 
25 2 32.4634 8.37569 8.37569 
26 2 34.4707 10.383 8.37569 
27 2 34.4707 8.37569 10.383 
28 2 32.4634 10.383 10.383 
29 2 36.4781 8.37569 8.37569 
30 2 38.4854 10.383 8.37569 
31 2 38.4854 8.37569 10.383 
32 2 36.4781 10.383 10.383 
33 2 40.4927 8.37569 8.37569 
34 2 42.5 10.383 8.37569 
35 2 42.5 8.37569 10.383 
36 2 40.4927 10.383 10.383 
37 2 44.5073 8.37569 8.37569 
38 2 46.5146 10.383 8.37569 
39 2 46.5146 8.37569 10.383 
40 2 44.5073 10.383 10.383 
41 2 48.5219 8.37569 8.37569 
42 2 50.5293 10.383 8.37569 
43 2 50.5293 8.37569 10.383 
44 2 48.5219 10.383 10.383 
45 2 52.5366 8.37569 8.37569 
46 2 54.5439 10.383 8.37569 
47 2 54.5439 8.37569 10.383 
48 2 52.5366 10.383 10.383 
49 2 56.5512 8.37569 8.37569 
50 2 58.5585 10.383 8.37569 
51 2 58.5585 8.37569 10.383 
52 2 56.5512 10.383 10.383 
53 2 60.5658 8.37569 8.37569 
54 2 62.5731 10.383 8.37569 
55 2 62.5731 8.37569 10.383 
56 2 60.5658 10.383 10.383 
57 2 64.5804 8.37569 8.37569 
58 2 66.5878 10.383 8.37569 
59 2 66.5878 8.37569 10.383 
60 2 64.5804 10.383 10.383 
61 2 68.5951 8.37569 8.37569 
62 2 70.6024 10.383 8.37569 
63 2 70.6024 8.37569 10.383 
64 2 68.5951 10.383 10.383 
65 2 72.6097 8.37569 8.37569 
66 2 74.617 10.383 8.37569 
67 2 74.617 8.37569 10.383 
68 2 72.6097 10.383 10.383 
69 2 8.37569 12.3903 8.37569 
70 2 10.383 14.3976 8.37569 
71 2 10.383 12.3903 10.383 
72 2 8.37569 14.3976 10.383 
73 2 12.3903 12.3903 8.37569 
74 2 14.3976 14.3976 8.37569 
75 2 14.3976 12.3903 10.383 
76 2 12.3903 14.3976 10.383 
77 2 16.4049 12.3903 8.37569 
78 2 18.4122 14.3976 8.37569 
79 2 18.4122 12.3903 10.383 
80 2 16.4049 14.3976 10.383 
81 2 20.4196 12.3903 8.37569 
82 2 22.4269 14.3976 8.37569 
83 2 22.4269 12.3903 10.383 
84 2 20.4196 14.3976 10.383 
85 2 24.4342 12.3903 8.37569 
86 2 26.4415 14.3976 8.37569 
87 2 26.4415 12.3903 10.383 
88 2 24.4342 14.3976 10.383 
89 2 28.4488 12.3903 8.37569 
90 2 30.4561 14.3976 8.37569 
91 2 30.4561 12.3903 10.383 
92 2 28.4488 14.3976 10.383 
93 2 32.4634 12.3903 8.37569 
94 2 34.4707 14.3976 8.37569 
95 2 34.4707 12.3903 10.383 
96 2 32.4634 14.3976 10.383 
97 2 36.4781 12.3903 8.37569 
98 2 38.4854 14.3976 8.37569 
99 2 38.4854 12.3903 10.383 
100 2 36.4781 14.3976 10.383 
101 2 40.4927 12.3903 8.37569 
102 2 42.5 14.3976 8.37569 
103 2 42.5 12.3903 10.383 
104 2 40.4927 14.3976 10.383 
105 2 44.5073 12.3903 8.37569 
106 2 46.5146 14.3976 8.37569 
107 2 46.5146 12.3903 10.383 
108 2 44.5073 14.3976 10.383 
109 2 48.5219 12.3903 8.37569 
110 2 50.5293 14.3976 8.37569 
111 2 50.5293 12.3903 10.383 
112 2 48.5219 14.3976 10.383 
113 2 52.5366 12.3903 8.37569 
114 2 54.5439 14.3976 8.37569 
115 2 54.5439 12.3903 10.383 
116 2 52.5366 14.3976 10.383 
117 2 56.5512 12.3903 8.37569 
118 2 58.5585 14.3976 8.37569 
119 2 58.5585 12.3903 10.383 
120 2 56.5512 14.3976 10.383 
121 2 60.5658 12.3903 8.37569 
122 2 62.5731 14.3976 8.37569 
123 2 62.5731 12.3903 10.383 
124 2 60.5658 14.3976 10.383 
125 2 64.5804 12.3903 8.37569 
126 2 66.5878 14.3976 8.37569 
127 2 66.5878 12.3903 10.383 
128 2 64.5804 14.3976 10.383 
129 2 68.5951 12.3903 8.37569 
130 2 70.6024 14.3976 8.37569 
131 2 70.6024 12.3903 10.383 
132 2 68.5951 14.3976 10.383 
133 2 72.6097 12.3903 8.37569 
134 2 74.617 14.3976 8.37569 
135 2 74.617 12.3903 10.383 
136 2 72.6097 14.3976 10.383 
137 2 8.37569 16.4049 8.37569 
138 2 10.383 18.4122 8.37569 
139 2 10.383 16.4049 10.383 
140 2 8.37569 18.4122 10.383 
141 2 12.3903 16.4049 8.37569 
142 2 14.3976 18.4122 8.37569 
143 2 14.3976 16.4049 10.383 
144 2 12.3903 18.4122 10.383 
145 2 16.4049 16.4049 8.37569 
146 2 18.4122 18.4122 8.37569 
147 2 18.4122 16.4049 10.383 
148 2 16.4049 18.4122 10.383 
149 2 20.4196 16.4049 8.37569 
150 2 22.4269 18.4122 8.37569 
151 2 22.4269 16.4049 10.383 
152 2 20.4196 18.4122 10.383 
153 2 24.4342 16.4049 8.37569 
154 2 26.4415 18.4122 8.37569 
155 2 26.4415 16.4049 10.383 
156 2 24.4342 18.4122 10.383 
157 2 28.4488 16.4049 8.37569 
158 2 30.4561 18.4122 8.37569 
159 2 30.4561 16.4049 10.383 
160 2 28.4488 18.4122 10.383 
161 2 32.4634 16.4049 8.37569 
162 2 34.4707 18.4122 8.37569 
163 2 34.4707 16.4049 10.383 
164 2 32.4634 18.4122 10.383 
165 2 36.4781 16.4049 8.37569 
166 2 38.4854 18.4122 8.37569 
167 2 38.4854 16.4049 10.383 
168 2 36.4781 18.4122 10.383 
169 2 40.4927 16.4049 8.37569 
170 2 42.5 18.4122 8.37569 
171 2 42.5 16.4049 10.383 
172 2 40.4927 18.4122 10.383 
173 2 44.5073 16.4049 8.37569 
174 2 46.5146 18.4122 8.37569 
175 2 46.5146 16.4049 10.383 
176 2 44.5073 18.4122 10.383 
177 2 48.5219 16.4049 8.37569 
178 2 50.5293 18.4122 8.37569 
179 2 50.5293 16.4049 10.383 
180 2 48.5219 18.4122 10.383 
181 2 52.5366 16.4049 8.37569 
182 2 54.5439 18.4122 8.37569 
183 2 54.5439 16.4049 10.383 
184 2 52.5366 18.4122 10.383 
185 2 56.5512 16.4049 8.37569 
186 2 58.5585 18.4122 8.37569 
187 2 58.5585 16.4049 10.383 
188 2 56.5512 18.4122 10.383 
189 2 60.5658 16.4049 8.37569 
190 2 62.5731 18.4122 8.37569 
191 2 62.5731 16.4049 10.383 
192 2 60.5658 18.4122 10.383 
193 2 64.5804 16.4049 8.37569 
194 2 66.5878 18.4122 8.37569 
195 2 66.5878 16.4049 10.383 
196 2 64.5804 18.4122 10.383 
197 2 68.5951 16.4049 8.37569 
198 2 70.6024 18.4122 8.37569 
199 2 70.6024 16.4049 10.383 
200 2 68.5951 18.4122 10.383 
201 2 72.6097 16.4049 8.37569 
202 2 74.617 18.4122 8.37569 
203 2 74.617 16.4049 10.383 
204 2 72.6097 18.4122 10.383 
205 2 8.37569 20.4196 8.37569 
206 2 10.383 22.4269 8.37569 
207 2 10.383 20.4196 10.383 
208 2 8.37569 22.4269 10.383 
209 2 12.3903 20.4196 8.37569 
210 2 14.3976 22.4269 8.37569 
211 2 14.3976 20.4196 10.383 
212 2 12.3903 22.4269 10.383 
213 2 16.4049 20.4196 8.37569 
214 2 18.4122 22.4269 8.37569 
215 2 18.4122 20.4196 10.383 
216 2 16.4049 22.4269 10.383 
217 2 20.4196 20.4196 8.37569 
218 2 22.4269 22.4269 8.37569 
219 2 22.4269 20.4196 10.383 
220 2 20.4196 22.4269 10.383 
221 2 24.4342 20.4196 8.37569 
222 2 26.4415 22.4269 8.37569 
223 2 26.4415 20.4196 10.383 
224 2 24.4342 22.4269 10.383 
225 2 28.4488 20.4196 8.37569 
226 2 30.4561 22.4269 8.37569 
227 2 30.4561 20.4196 10.383 
228 2 28.4488 22.4269 10.383 
229 2 32.4634 20.4196 8.37569 
230 2 34.4707 22.4269 8.37569 
231 2 34.4707 20.4196 10.383 
232 2 32.4634 22.4269 10.383 
233 2 36.4781 20.4196 8.37569 
234 2 38.4854 22.4269 8.37569 
235 2 38.4854 20.4196 10.383 
236 2 36.4781 22.4269 10.383 
237 2 40.4927 20.4196 8.37569 
238 2 42.5 22.4269 8.37569 
239 2 42.5 20.4196 10.383 
240 2 40.4927 22.4269 10.383 
241 2 44.5073 20.4196 8.37569 
242 2 46.5146 22.4269 8.37569 
243 2 46.5146 20.4196 10.383 
244 2 44.5073 22.4269 10.383 
245 2 48.5219 20.4196 8.37569 
246 2 50.5293 22.4269 8.37569 
247 2 50.5293 20.4196 10.383 
248 2 48.5219 22.4269 10.383 
249 2 52.5366 20.4196 8.37569 
250 2 54.5439 22.4269 8.37569 
251 2 54.5439 20.4196 10.383 
252 2 52.5366 22.4269 10.383 
253 2 56.5512 20.4196 8.37569 
254 2 58.5585 22.4269 8.37569 
255 2 58.5585 20.4196 10.383 
256 2 56.5512 22.4269 10.383 
257 2 60.5658 20.4196 8.37569 
258 2 62.5731 22.4269 8.37569 
259 2 62.5731 20.4196 10.383 
260 2 60.5658 22.4269 10.383 
261 2 64.5804 20.4196 8.37569 
262 2 66.5878 22.4269 8.37569 
263 2 66.5878 20.4196 10.383 
264 2 64.5804 22.4269 10.383 
265 2 68.5951 20.4196 8.37569 
266 2 70.6024 22.4269 8.37569 
267 2 70.6024 20.4196 10.383 
268 2 68.5951 22.4269 10.383 
269 2 72.6097 20.4196 8.37569 
270 2 74.617 22.4269 8.37569 
271 2 74.617 20.4196 10.383 
272 2 72.6097 22.4269 10.383 
273 2 8.37569 24.4342 8.37569 
274 2 10.383 26.4415 8.37569 
275 2 10.383 24.4342 10.383 
276 2 8.37569 26.4415 10.383 
277 2 12.3903 24.4342 8.37569 
278 2 14.3976 26.4415 8.37569 
279 2 14.3976 24.4342 10.383 
280 2 12.3903 26.4415 10.383 
281 2 16.4049 24.4342 8.37569 
282 2 18.4122 26.4415 8.37569 
283 2 18.4122 24.4342 10.383 
284 2 16.4049 26.4415 10.383 
285 2 20.4196 24.4342 8.37569 
286 2 22.4269 26.4415 8.37569 
287 2 22.4269 24.4342 10.383 
288 2 20.4196 26.4415 10.383 
289 2 24.4342 24.4342 8.37569 
290 2 26.4415 26.4415 8.37569 
291 2 26.4415 24.4342 10.383 
292 2 24.4342 26.4415 10.383 
293 2 28.4488 24.4342 8.37569 
294 2 30.4561 26.4415 8.37569 
295 2 30.4561 24.4342 10.383 
296 2 28.4488 26.4415 10.383 
297 2 32.4634 24.4342 8.37569 
298 2 34.4707 26.4415 8.37569 
299 2 34.4707 24.4342 10.383 
300 2 32.4634 26.4415 10.383 
301 2 36.4781 24.4342 8.37569 
302 2 38.4854 26.4415 8.37569 
303 2 38.4854 24.4342 10.383 
304 2 36.4781 26.4415 10.383 
305 2 40.4927 24.4342 8.37569 
306 2 42.5 26.4415 8.37569 
307 2 42.5 24.4342 10.383 
308 2 40.4927 26.4415 10.383 
309 2 44.5073 24.4342 8.37569 
310 2 46.5146 26.4415 8.37569 
311 2 46.5146 24.4342 10.383 
312 2 44.5073 26.4415 10.383 
313 2 48.5219 24.4342 8.37569 
314 2 50.5293 26.4415 8.37569 
315 2 50.5293 24.4342 10.383 
316 2 48.5219 26.4415 10.383 
317 2 52.5366 24.4342 8.37569 
318 2 54.5439 26.4415 8.37569 
319 2 54.5439 24.4342 10.383 
320 2 52.5366 26.4415 10.383 
321 2 56.5512 24.4342 8.37569 
322 2 58.5585 26.4415 8.37569 
323 2 58.5585 24.4342 10.383 
324 2 56.5512 26.4415 10.383 
325 2 60.5658 24.4342 8.37569 
326 2 62.5731 26.4415 8.37569 
327 2 62.5731 24.4342 10.383 
328 2 60.5658 26.4415 10.383 
329 2 64.5804 24.4342 8.37569 
330 2 66.5878 26.4415 8.37569 
331 2 66.5878 24.4342 10.383 
332 2 64.5804 26.4415 10.383 
333 2 68.5951 24.4342 8.37569 
334 2 70.6024 26.4415 8.37569 
335 2 70.6024 24.4342 10.383 
336 2 68.5951 26.4415 10.383 
337 2 72.6097 24.4342 8.37569 
338 2 74.617 26.4415 8.37569 
339 2 74.617 24.4342 10.383 
340 2 72.6097 26.4415 10.383 
341 2 8.37569 28.4488 8.37569 
342 2 10.383 30.4561 8.37569 
343 2 10.383 28.4488 10.383 
344 2 8.37569 30.4561 10.383 
345 2 12.3903 28.4488 8.37569 
346 2 14.3976 30.4561 8.37569 
347 2 14.3976 28.4488 10.383 
348 2 12.3903 30.4561 10.383 
349 2 16.4049 28.4488 8.37569 
350 2 18.4122 30.4561 8.37569 
351 2 18.4122 28.4488 10.383 
352 2 16.4049 30.4561 10.383 
353 2 20.4196 28.4488 8.37569 
354 2 22.4269 30.4561 8.37569 
355 2 22.4269 28.4488 10.383 
356 2 20.4196 30.4561 10.383 
357 2 24.4342 28.4488 8.37569 
358 2 26.4415 30.4561 8.37569 
359 2 26.4415 28.4488 10.383 
360 2 24.4342 30.4561 10.383 
361 2 28.4488 28.4488 8.37569 
362 2 30.4561 30.4561 8.37569 
363 2 30.4561 28.4488 10.383 
364 2 28.4488 30.4561 10.383 
365 2 32.4634 28.4488 8.37569 
366 2 34.4707 30.4561 8.37569 
367 2 34.4707 28.4488 10.383 
368 2 32.4634 30.4561 10.383 
369 2 36.4781 28.4488 8.37569 
370 2 38.4854 30.4561 8.37569 
371 2 38.4854 28.4488 10.383 
372 2 36.4781 30.4561 10.383 
373 2 40.4927 28.4488 8.37569 
374 2 42.5 30.4561 8.37569 
375 2 42.5 28.4488 10.383 
376 2 40.4927 30.4561 10.383 
377 2 44.5073 28.4488 8.37569 
378 2 46.5146 30.4561 8.37569 
379 2 46.5146 28.4488 10.383 
380 2 44.5073 30.4561 10.383 
381 2 48.5219 28.4488 8.37569 
382 2 50.5293 30.4561 8.37569 
383 2 50.5293 28.4488 10.383 
384 2 48.5219 30.4561 10.383 
385 2 52.5366 28.4488 8.37569 
386 2 54.5439 30.4561 8.37569 
387 2 54.5439 28.4488 10.383 
388 2 52.5366 30.4561 10.383 
389 2 56.5512 28.4488 8.37569 
390 2 58.5585 30.4561 8.37569 
391 2 58.5585 28.4488 10.383 
392 2 56.5512 30.4561 10.383 
393 2 60.5658 28.4488 8.37569 
394 2 62.5731 30.4561 8.37569 
395 2 62.5731 28.4488 10.383 
396 2 60.5658 30.4561 10.383 
397 2 64.5804 28.4488 8.37569 
398 2 66.5878 30.4561 8.37569 
399 2 66.5878 28.4488 10.383 
400 2 64.5804 30.4561 10.383 
401 2 68.5951 28.4488 8.37569 
402 2 70.6024 30.4561 8.37569 
403 2 70.6024 28.4488 10.383 
404 2 68.5951 30.4561 10.383 
405 2 72.6097 28.4488 8.37569 
406 2 74.617 30.4561 8.37569 
407 2 74.617 28.4488 10.383 
408 2 72.6097 30.4561 10.383 
409 2 8.37569 32.4634 8.37569 
410 2 10.383 34.4707 8.37569 
411 2 10.383 32.4634 10.383 
412 2 8.37569 34.4707 10.383 
413 2 12.3903 32.4634 8.37569 
414 2 14.3976 34.4707 8.37569 
415 2 14.3976 32.4634 10.383 
416 2 12.3903 34.4707 10.383 
417 2 16.4049 32.4634 8.37569 
418 2 18.4122 34.4707 8.37569 
419 2 18.4122 32.4634 10.383 
420 2 16.4049 34.4707 10.383 
421 2 20.4196 32.4634 8.37569 
422 2 22.4269 34.4707 8.37569 
423 2 22.4269 32.4634 10.383 
424 2 20.4196 34.4707 10.383 
425 2 24.4342 32.4634 8.37569 
426 2 26.4415 34.4707 8.37569 
427 2 26.4415 32.4634 10.383 
428 2 24.4342 34.4707 10.383 
429 2 28.4488 32.4634 8.37569 
430 2 30.4561 34.4707 8.37569 
431 2 30.4561 32.4634 10.383 
432 2 28.4488 34.4707 10.383 
433 2 32.4634 32.4634 8.37569 
434 2 34.4707 34.4707 8.37569 
435 2 34.4707 32.4634 10.383 
436 2 32.4634 34.4707 10.383 
437 2 36.4781 32.4634 8.37569 
438 2 38.4854 34.4707 8.37569 
439 2 38.4854 32.4634 10.383 
440 2 36.4781 34.4707 10.383 
441 2 40.4927 32.4634 8.37569 
442 2 42.5 34.4707 8.37569 
443 2 42.5 32.4634 10.383 
444 2 40.4927 34.4707 10.383 
445 2 44.5073 32.4634 8.37569 
446 2 46.5146 34.4707 8.37569 
447 2 46.5146 32.4634 10.383 
448 2 44.5073 34.4707 10.383 
449 2 48.5219 32.4634 8.37569 
450 2 50.5293 34.4707 8.37569 
451 2 50.5293 32.4634 10.383 
452 2 48.5219 34.4707 10.383 
453 2 52.5366 32.4634 8.37569 
454 2 54.5439 34.4707 8.37569 
455 2 54.5439 32.4634 10.383 
456 2 52.5366 34.4707 10.383 
457 2 56.5512 32.4634 8.37569 
458 2 58.5585 34.4707 8.37569 
459 2 58.5585 32.4634 10.383 
460 2 56.5512 34.4707 10.383 
461 2 60.5658 32.4634 8.37569 
462 2 62.5731 34.4707 8.37569 
463 2 62.5731 32.4634 10.383 
464 2 60.5658 34.4707 10.383 
465 2 64.5804 32.4634 8.37569 
466 2 66.5878 34.4707 8.37569 
467 2 66.5878 32.4634 10.383 
468 2 64.5804 34.4707 10.383 
469 2 68.5951 32.4634 8.37569 
470 2 70.6024 34.4707 8.37569 
471 2 70.6024 32.4634 10.383 
472 2 68.5951 34.4707 10.383 
473 2 72.6097 32.4634 8.37569 
474 2 74.617 34.4707 8.37569 
475 2 74.617 32.4634 10.383 
476 2 72.6097 34.4707 10.383 
477 2 8.37569 36.4781 8.37569 
478 2 10.383 38.4854 8.37569 
479 2 10.383 36.4781 10.383 
480 2 8.37569 38.4854 10.383 
481 2 12.3903 36.4781 8.37569 
482 2 14.3976 38.4854 8.37569 
483 2 14.3976 36.4781 10.383 
484 2 12.3903 38.4854 10.383 
485 2 16.4049 36.4781 8.37569 
486 2 18.4122 38.4854 8.37569 
487 2 18.4122 36.4781 10.383 
488 2 16.4049 38.4854 10.383 
489 2 20.4196 36.4781 8.37569 
490 2 22.4269 38.4854 8.37569 
491 2 22.4269 36.4781 10.383 
492 2 20.4196 38.4854 10.383 
493 2 24.4342 36.4781 8.37569 
494 2 26.4415 38.4854 8.37569 
495 2 26.4415 36.4781 10.383 
496 2 24.4342 38.4854 10.383 
497 2 28.4488 36.4781 8.37569 
498 2 30.4561 38.4854 8.37569 
499 2 30.4561 36.4781 10.383 
500 2 28.4488 38.4854 10.383 
501 2 32.4634 36.4781 8.37569 
502 2 34.4707 38.4854 8.37569 
503 2 34.4707 36.4781 10.383 
504 2 32.4634 38.4854 10.383 
505 2 36.4781 36.4781 8.37569 
506 2 38.4854 38.4854 8.37569 
507 2 38.4854 36.4781 10.383 
508 2 36.4781 38.4854 10.383 
509 2 40.4927 36.4781 8.37569 
510 2 42.5 38.4854 8.37569 
511 2 42.5 36.4781 10.383 
512 2 40.4927 38.4854 10.383 
513 2 44.5073 36.4781 8.37569 
514 2 46.5146 38.4854 8.37569 
515 2 46.5146 36.4781 10.383 
516 2 44.5073 38.4854 10.383 
517 2 48.5219 36.4781 8.37569 
518 2 50.5293 38.4854 8.37569 
519 2 50.5293 36.4781 10.383 
520 2 48.5219 38.4854 10.383 
521 2 52.5366 36.4781 8.37569 
522 2 54.5439 38.4854 8.37569 
523 2 54.5439 36.4781 10.383 
524 2 52.5366 38.4854 10.383 
525 2 56.5512 36.4781 8.37569 
526 2 58.5585 38.4854 8.37569 
527 2 58.5585 36.4781 10.383 
528 2 56.5512 38.4854 10.383 
529 2 60.5658 36.4781 8.37569 
530 2 62.5731 38.4854 8.37569 
531 2 62.5731 36.4781 10.383 
532 2 60.5658 38.4854 10.383 
533 2 64.5804 36.4781 8.37569 
534 2 66.5878 38.4854 8.37569 
535 2 66.5878 36.4781 10.383 
536 2 64.5804 38.4854 10.383 
537 2 68.5951 36.4781 8.37569 
538 2 70.6024 38.4854 8.37569 
539 2 70.6024 36.4781 10.383 
540 2 68.5951 38.4854 10.383 
541 2 72.6097 36.4781 8.37569 
542 2 74.617 38.4854 8.37569 
543 2 74.617 36.4781 10.383 
544 2 72.6097 38.4854 10.383 
545 2 8.37569 40.4927 8.37569 
546 2 10.383 42.5 8.37569 
547 2 10.383 40.4927 10.383 
548 2 8.37569 42.5 10.383 
549 2 12.3903 40.4927 8.37569 
550 2 14.3976 42.5 8.37569 
551 2 14.3976 40.4927 10.383 
552 2 12.3903 42.5 10.383 
553 2 16.4049 40.4927 8.37569 
554 2 18.4122 42.5 8.37569 
555 2 18.4122 40.4927 10.383 
556 2 16.4049 42.5 10.383 
557 2 20.4196 40.4927 8.37569 
558 2 22.4269 42.5 8.37569 
559 2 22.4269 40.4927 10.383 
560 2 20.4196 42.5 10.383 
561 2 24.4342 40.4927 8.37569 
562 2 26.4415 42.5 8.37569 
563 2 26.4415 40.4927 10.383 
564 2 24.4342 42.5 10.383 
565 2 28.4488 40.4927 8.37569 
566 2 30.4561 42.5 8.37569 
567 2 30.4561 40.4927 10.383 
568 2 28.4488 42.5 10.383 
569 2 32.4634 40.4927 8.37569 
570 2 34.4707 42.5 8.37569 
571 2 34.4707 40.4927 10.383 
572 2 32.4634 42.5 10.383 
573 2 36.4781 40.4927 8.37569 
574 2 38.4854 42.5 8.37569 
575 2 38.4854 40.4927 10.383 
576 2 36.4781 42.5 10.383 
577 2 40.4927 40.4927 8.37569 
578 2 42.5 42.5 8.37569 
579 2 42.5 40.4927 10.383 
580 2 40.4927 42.5 10.383 
581 2 44.5073 40.4927 8.37569 
582 2 46.5146 42.5 8.37569 
583 2 46.5146 40.4927 10.383 
584 2 44.5073 42.5 10.383 
585 2 48.5219 40.4927 8.37569 
586 2 50.5293 42.5 8.37569 
587 2 50.5293 40.4927 10.383 
588 2 48.5219 42.5 10.383 
589 2 52.5366 40.4927 8.37569 
590 2 54.5439 42.5 8.37569 
591 2 54.5439 40.4927 10.383 
592 2 52.5366 42.5 10.383 
593 2 56.5512 40.4927 8.37569 
594 2 58.5585 42.5 8.37569 
595 2 58.5585 40.4927 10.383 
596 2 56.5512 42.5 10.383 
597 2 60.5658 40.4927 8.37569 
598 2 62.5731 42.5 8.37569 
599 2 62.5731 40.4927 10.383 
600 2 60.5658 42.5 10.383 
601 2 64.5804 40.4927 8.37569 
602 2 66.5878 42.5 8.37569 
603 2 66.5878 40.4927 10.383 
604 2 64.5804 42.5 10.383 
605 2 68.5951 40.4927 8.37569 
606 2 70.6024 42.5 8.37569 
607 2 70.6024 40.4927 10.383 
608 2 68.5951 42.5 10.383 
609 2 72.6097 40.4927 8.37569 
610 2 74.617 42.5 8.37569 
611 2 74.617 40.4927 10.383 
612 2 72.6097 42.5 10.383 
613 2 8.37569 44.5073 8.37569 
614 2 10.383 46.5146 8.37569 
615 2 10.383 44.5073 10.383 
616 2 8.37569 46.5146 10.383 
617 2 12.3903 44.5073 8.37569 
618 2 14.3976 46.5146 8.37569 
619 2 14.3976 44.5073 10.383 
620 2 12.3903 46.5146 10.383 
621 2 16.4049 44.5073 8.37569 
622 2 18.4122 46.5146 8.37569 
623 2 18.4122 44.5073 10.383 
624 2 16.4049 46.5146 10.383 
625 2 20.4196 44.5073 8.37569 
626 2 22.4269 46.5146 8.37569 
627 2 22.4269 44.5073 10.383 
628 2 20.4196 46.5146 10.383 
629 2 24.4342 44.5073 8.37569 
630 2 26.4415 46.5146 8.37569 
631 2 26.4415 44.5073 10.383 
632 2 24.4342 46.5146 10.383 
633 2 28.4488 44.5073 8.37569 
634 2 30.4561 46.5146 8.37569 
635 2 30.4561 44.5073 10.383 
636 2 28.4488 46.5146 10.383 
637 2 32.4634 44.5073 8.37569 
638 2 34.4707 46.5146 8.37569 
639 2 34.4707 44.5073 10.383 
640 2 32.4634 46.5146 10.383 
641 2 36.4781 44.5073 8.37569 
642 2 38.4854 46.5146 8.37569 
643 2 38.4854 44.5073 10.383 
644 2 36.4781 46.5146 10.383 
645 2 40.4927 44.5073 8.37569 
646 2 42.5 46.5146 8.37569 
647 2 42.5 44.5073 10.383 
648 2 40.4927 46.5146 10.383 
649 2 44.5073 44.5073 8.37569 
650 2 46.5146 46.5146 8.37569 
651 2 46.5146 44.5073 10.383 
652 2 44.5073 46.5146 10.383 
653 2 48.5219 44.5073 8.37569 
654 2 50.5293 46.5146 8.37569 
655 2 50.5293 44.5073 10.383 
656 2 48.5219 46.5146 10.383 
657 2 52.5366 44.5073 8.37569 
658 2 54.5439 46.5146 8.37569 
659 2 54.5439 44.5073 10.383 
660 2 52.5366 46.5146 10.383 
661 2 56.5512 44.5073 8.37569 
662 2 58.5585 46.5146 8.37569 
663 2 58.5585 44.5073 10.383 
664 2 56.5512 46.5146 10.383 
665 2 60.5658 44.5073 8.37569 
666 2 62.5731 46.5146 8.37569 
667 2 62.5731 44.5073 10.383 
668 2 60.5658 46.5146 10.383 
669 2 64.5804 44.5073 8.37569 
670 2 66.5878 46.5146 8.37569 
671 2 66.5878 44.5073 10.383 
672 2 64.5804 46.5146 10.383 
673 2 68.5951 44.5073 8.37569 
674 2 70.6024 46.5146 8.37569 
675 2 70.6024 44.5073 10.383 
676 2 68.5951 46.5146 10.383 
677 2 72.6097 44.5073 8.37569 
678 2 74.617 46.5146 8.37569 
679 2 74.617 44.5073 10.383 
680 2 72.6097 46.5146 10.383 
681 2 8.37569 48.5219 8.37569 
682 2 10.383 50.5293 8.37569 
683 2 10.383 48.5219 10.383 
684 2 8.37569 50.5293 10.383 
685 2 12.3903 48.5219 8.37569 
686 2 14.3976 50.5293 8.37569 
687 2 14.3976 48.5219 10.383 
688 2 12.3903 50.5293 10.383 
689 2 16.4049 48.5219 8.37569 
690 2 18.4122 50.5293 8.37569 
691 2 18.4122 48.5219 10.383 
692 2 16.4049 50.5293 10.383 
693 2 20.4196 48.5219 8.37569 
694 2 22.4269 50.5293 8.37569 
695 2 22.4269 48.5219 10.383 
696 2 20.4196 50.5293 10.383 
697 2 24.4342 48.5219 8.37569 
698 2 26.4415 50.5293 8.37569 
699 2 26.4415 48.5219 10.383 
700 2 24.4342 50.5293 10.383 
701 2 28.4488 48.5219 8.37569 
702 2 30.4561 50.5293 8.37569 
703 2 30.4561 48.5219 10.383 
704 2 28.4488 50.5293 10.383 
705 2 32.4634 48.5219 8.37569 
706 2 34.4707 50.5293 8.37569 
707 2 34.4707 48.5219 10.383 
708 2 32.4634 50.5293 10.383 
709 2 36.4781 48.5219 8.37569 
710 2 38.4854 50.5293 8.37569 
711 2 38.4854 48.5219 10.383 
712 2 36.4781 50.5293 10.383 
713 2 40.4927 48.5219 8.37569 
714 2 42.5 50.5293 8.37569 
715 2 42.5 48.5219 10.383 
716 2 40.4927 50.5293 10.383 
717 2 44.5073 48.5219 8.37569 
718 2 46.5146 50.5293 8.37569 
719 2 46.5146 48.5219 10.383 
720 2 44.5073 50.5293 10.383 
721 2 48.5219 48.5219 8.37569 
722 2 50.5293 50.5293 8.37569 
723 2 50.5293 48.5219 10.383 
724 2 48.5219 50.5293 10.383 
725 2 52.5366 48.5219 8.37569 
726 2 54.5439 50.5293 8.37569 
727 2 54.5439 48.5219 10.383 
728 2 52.5366 50.5293 10.383 
729 2 56.5512 48.5219 8.37569 
730 2 58.5585 50.5293 8.37569 
731 2 58.5585 48.5219 10.383 
732 2 56.5512 50.5293 10.383 
733 2 60.5658 48.5219 8.37569 
734 2 62.5731 50.5293 8.37569 
735 2 62.5731 48.5219 10.383 
736 2 60.5658 50.5293 10.383 
737 2 64.5804 48.5219 8.37569 
738 2 66.5878 50.5293 8.37569 
739 2 66.5878 48.5219 10.383 
740 2 64.5804 50.5293 10.383 
741 2 68.5951 48.5219 8.37569 
742 2 70.6024 50.5293 8.37569 
743 2 70.6024 48.5219 10.383 
744 2 68.5951 50.5293 10.383 
745 2 72.6097 48.5219 8.37569 
746 2 74.617 50.5293 8.37569 
747 2 74.617 48.5219 10.383 
748 2 72.6097 50.5293 10.383 
749 2 8.37569 52.5366 8.37569 
750 2 10.383 54.5439 8.37569 
751 2 10.383 52.5366 10.383 
752 2 8.37569 54.5439 10.383 
753 2 12.3903 52.5366 8.37569 
754 2 14.3976 54.5439 8.37569 
755 2 14.3976 52.5366 10.383 
756 2 12.3903 54.5439 10.383 
757 2 16.4049 52.5366 8.37569 
758 2 18.4122 54.5439 8.37569 
759 2 18.4122 52.5366 10.383 
760 2 16.4049 54.5439 10.383 
761 2 20.4196 52.5366 8.37569 
762 2 22.4269 54.5439 8.37569 
763 2 22.4269 52.5366 10.383 
764 2 20.4196 54.5439 10.383 
765 2 24.4342 52.5366 8.37569 
766 2 26.4415 54.5439 8.37569 
767 2 26.4415 52.5366 10.383 
768 2 24.4342 54.5439 10.383 
769 2 28.4488 52.5366 8.37569 
770 2 30.4561 54.5439 8.37569 
771 2 30.4561 52.5366 10.383 
772 2 28.4488 54.5439 10.383 
773 2 32.4634 52.5366 8.37569 
774 2 34.4707 54.5439 8.37569 
775 2 34.4707 52.5366 10.383 
776 2 32.4634 54.5439 10.383 
777 2 36.4781 52.5366 8.37569 
778 2 38.4854 54.5439 8.37569 
779 2 38.4854 52.5366 10.383 
780 2 36.4781 54.5439 10.383 
781 2 40.4927 52.5366 8.37569 
782 2 42.5 54.5439 8.37569 
783 2 42.5 52.5366 10.383 
784 2 40.4927 54.5439 10.383 
785 2 44.5073 52.5366 8.37569 
786 2 46.5146 54.5439 8.37569 
787 2 46.5146 52.5366 10.383 
788 2 44.5073 54.5439 10.383 
789 2 48.5219 52.5366 8.37569 
790 2 50.5293 54.5439 8.37569 
791 2 50.5293 52.5366 10.383 
792 2 48.5219 54.5439 10.383 
793 2 52.5366 52.5366 8.37569 
794 2 54.5439 54.5439 8.37569 
795 2 54.5439 52.5366 10.383 
796 2 52.5366 54.5439 10.383 
797 2 56.5512 52.5366 8.37569 
798 2 58.5585 54.5439 8.37569 
799 2 58.5585 52.5366 10.383 
800 2 56.5512 54.5439 10.383 
801 2 60.5658 52.5366 8.37569 
802 2 62.5731 54.5439 8.37569 
803 2 62.5731 52.5366 10.383 
804 2 60.5658 54.5439 10.383 
805 2 64.5804 52.5366 8.37569 
806 2 66.5878 54.5439 8.37569 
807 2 66.5878 52.5366 10.383 
808 2 64.5804 54.5439 10.383 
809 2 68.5951 52.5366 8.37569 
810 2 70.6024 54.5439 8.37569 
811 2 70.6024 52.5366 10.383 
812 2 68.5951 54.5439 10.383 
813 2 72.6097 52.5366 8.37569 
814 2 74.617 54.5439 8.37569 
815 2 74.617 52.5366 10.383 
816 2 72.6097 54.5439 10.383 
817 2 8.37569 56.5512 8.37569 
818 2 10.383 58.5585 8.37569 
819 2 10.383 56.5512 10.383 
820 2 8.37569 58.5585 10.383 
821 2 12.3903 56.5512 8.37569 
822 2 14.3976 58.5585 8.37569 
823 2 14.3976 56.5512 10.383 
824 2 12.3903 58.5585 10.383 
825 2 16.4049 56.5512 8.37569 
826 2 18.4122 58.5585 8.37569 
827 2 18.4122 56.5512 10.383 
828 2 16.4049 58.5585 10.383 
829 2 20.4196 56.5512 8.37569 
830 2 22.4269 58.5585 8.37569 
831 2 22.4269 56.5512 10.383 
832 2 20.4196 58.5585 10.383 
833 2 24.4342 56.5512 8.37569 
834 2 26.4415 58.5585 8.37569 
835 2 26.4415 56.5512 10.383 
836 2 24.4342 58.5585 10.383 
837 2 28.4488 56.5512 8.37569 
838 2 30.4561 58.5585 8.37569 
839 2 30.4561 56.5512 10.383 
840 2 28.4488 58.5585 10.383 
841 2 32.4634 56.5512 8.37569 
842 2 34.4707 58.5585 8.37569 
843 2 34.4707 56.5512 10.383 
844 2 32.4634 58.5585 10.383 
845 2 36.4781 56.5512 8.37569 
846 2 38.4854 58.5585 8.37569 
847 2 38.4854 56.5512 10.383 
848 2 36.4781 58.5585 10.383 
849 2 40.4927 56.5512 8.37569 
850 2 42.5 58.5585 8.37569 
851 2 42.5 56.5512 10.383 
852 2 40.4927 58.5585 10.383 
853 2 44.5073 56.5512 8.37569 
854 2 46.5146 58.5585 8.37569 
855 2 46.5146 56.5512 10.383 
856 2 44.5073 58.5585 10.383 
857 2 48.5219 56.5512 8.37569 
858 2 50.5293 58.5585 8.37569 
859 2 50.5293 56.5512 10.383 
860 2 48.5219 58.5585 10.383 
861 2 52.5366 56.5512 8.37569 
862 2 54.5439 58.5585 8.37569 
863 2 54.5439 56.5512 10.383 
864 2 52.5366 58.5585 10.383 
865 2 56.5512 56.5512 8.37569 
866 2 58.5585 58.5585 8.37569 
867 2 58.5585 56.5512 10.383 
868 2 56.5512 58.5585 10.383 
869 2 60.5658 56.5512 8.37569 
870 2 62.5731 58.5585 8.37569 
871 2 62.5731 56.5512 10.383 
872 2 60.5658 58.5585 10.383 
873 2 64.5804 56.5512 8.37569 
874 2 66.5878 58.5585 8.37569 
875 2 66.5878 56.5512 10.383 
876 2 64.5804 58.5585 10.383 
877 2 68.5951 56.5512 8.37569 
878 2 70.6024 58.5585 8.37569 
879 2 70.6024 56.5512 10.383 
880 2 68.5951 58.5585 10.383 
881 2 72.6097 56.5512 8.37569 
882 2 74.617 58.5585 8.37569 
883 2 74.617 56.5512 10.383 
884 2 72.6097 58.5585 10.383 
885 2 8.37569 60.5658 8.37569 
886 2 10.383 62.5731 8.37569 
887 2 10.383 60.5658 10.383 
888 2 8.37569 62.5731 10.383 
889 2 12.3903 60.5658 8.37569 
890 2 14.3976 62.5731 8.37569 
891 2 14.3976 60.5658 10.383 
892 2 12.3903 62.5731 10.383 
893 2 16.4049 60.5658 8.37569 
894 2 18.4122 62.5731 8.37569 
895 2 18.4122 60.5658 10.383 
896 2 16.4049 62.5731 10.383 
897 2 20.4196 60.5658 8.37569 
898 2 22.4269 62.5731 8.37569 
899 2 22.4269 60.5658 10.383 
900 2 20.4196 62.5731 10.383 
901 2 24.4342 60.5658 8.37569 
902 2 26.4415 62.5731 8.37569 
903 2 26.4415 60.5658 10.383 
904 2 24.4342 62.5731 10.383 
905 2 28.4488 60.5658 8.37569 
906 2 30.4561 62.5731 8.37569 
907 2 30.4561 60.5658 10.383 
908 2 28.4488 62.5731 10.383 
909 2 32.4634 60.5658 8.37569 
910 2 34.4707 62.5731 8.37569 
911 2 34.4707 60.5658 10.383 
912 2 32.4634 62.5731 10.383 
913 2 36.4781 60.5658 8.37569 
914 2 38.4854 62.5731 8.37569 
915 2 38.4854 60.5658 10.383 
916 2 36.4781 62.5731 10.383 
917 2 40.4927 60.5658 8.37569 
918 2 42.5 62.5731 8.37569 
919 2 42.5 60.5658 10.383 
920 2 40.4927 62.5731 10.383 
921 2 44.5073 60.5658 8.37569 
922 2 46.5146 62.5731 8.37569 
923 2 46.5146 60.5658 10.383 
924 2 44.5073 62.5731 10.383 
925 2 48.5219 60.5658 8.37569 
926 2 50.5293 62.5731 8.37569 
927 2 50.5293 60.5658 10.383 
928 2 48.5219 62.5731 10.383 
929 2 52.5366 60.5658 8.37569 
930 2 54.5439 62.5731 8.37569 
931 2 54.5439 60.5658 10.383 
932 2 52.5366 62.5731 10.383 
933 2 56.5512 60.5658 8.37569 
934 2 58.5585 62.5731 8.37569 
935 2 58.5585 60.5658 10.383 
936 2 56.5512 62.5731 10.383 
937 2 60.5658 60.5658 8.37569 
938 2 62.5731 62.5731 8.37569 
939 2 62.5731 60.5658 10.383 
940 2 60.5658 62.5731 10.383 
941 2 64.5804 60.5658 8.37569 
942 2 66.5878 62.5731 8.37569 
943 2 66.5878 60.5658 10.383 
944 2 64.5804 62.5731 10.383 
945 2 68.5951 60.5658 8.37569 
946 2 70.6024 62.5731 8.37569 
947 2 70.6024 60.5658 10.383 
948 2 68.5951 62.5731 10.383 
949 2 72.6097 60.5658 8.37569 
950 2 74.617 62.5731 8.37569 
951 2 74.617 60.5658 10.383 
952 2 72.6097 62.5731 10.383 
953 2 8.37569 64.5804 8.37569 
954 2 10.383 66.5878 8.37569 
955 2 10.383 64.5804 10.383 
956 2 8.37569 66.5878 10.383 
957 2 12.3903 64.5804 8.37569 
958 2 14.3976 66.5878 8.37569 
959 2 14.3976 64.5804 10.383 
960 2 12.3903 66.5878 10.383 
961 2 16.4049 64.5804 8.37569 
962 2 18.4122 66.5878 8.37569 
963 2 18.4122 64.5804 10.383 
964 2 16.4049 66.5878 10.383 
965 2 20.4196 64.5804 8.37569 
966 2 22.4269 66.5878 8.37569 
967 2 22.4269 64.5804 10.383 
968 2 20.4196 66.5878 10.383 
969 2 24.4342 64.5804 8.37569 
970 2 26.4415 66.5878 8.37569 
971 2 26.4415 64.5804 10.383 
972 2 24.4342 66.5878 10.383 
973 2 28.4488 64.5804 8.37569 
974 2 30.4561 66.5878 8.37569 
975 2 30.4561 64.5804 10.383 
976 2 28.4488 66.5878 10.383 
977 2 32.4634 64.5804 8.37569 
978 2 34.4707 66.5878 8.37569 
979 2 34.4707 64.5804 10.383 
980 2 32.4634 66.5878 10.383 
981 2 36.4781 64.5804 8.37569 
982 2 38.4854 66.5878 8.37569 
983 2 38.4854 64.5804 10.383 
984 2 36.4781 66.5878 10.383 
985 2 40.4927 64.5804 8.37569 
986 2 42.5 66.5878 8.37569 
987 2 42.5 64.5804 10.383 
988 2 40.4927 66.5878 10.383 