ITEM: TIMESTEP
101
ITEM: NUMBER OF ATOMS
19652
ITEM: BOX BOUNDS pp pp pp
2.0655207327158461e+01 6.4344792672841251e+01
3.5775868531507172e+01 1.1144845011184772e+02
3.3729812321956295e+01 1.0507460643575700e+02
ITEM: ATOMS id type xu yu zu 
1 1 20.6552 35.7759 33.7298 
2 1 21.9402 38.0015 33.7298 
3 1 21.9402 39.4853 35.8282 
4 1 20.6552 37.2596 35.8282 
5 1 23.2252 35.7759 33.7298 
6 1 24.5102 38.0015 33.7298 
7 1 24.5102 39.4853 35.8282 
8 1 23.2252 37.2596 35.8282 
9 1 25.7952 35.7759 33.7298 
10 1 27.0801 38.0015 33.7298 
11 1 27.0801 39.4853 35.8282 
12 1 25.7952 37.2596 35.8282 
13 1 28.3651 35.7759 33.7298 
14 1 29.6501 38.0015 33.7298 
15 1 29.6501 39.4853 35.8282 
16 1 28.3651 37.2596 35.8282 
17 1 30.9351 35.7759 33.7298 
18 1 32.2201 38.0015 33.7298 
19 1 32.2201 39.4853 35.8282 
20 1 30.9351 37.2596 35.8282 
21 1 33.5051 35.7759 33.7298 
22 1 34.7901 38.0015 33.7298 
23 1 34.7901 39.4853 35.8282 
24 1 33.5051 37.2596 35.8282 
25 1 36.0751 35.7759 33.7298 
26 1 37.36 38.0015 33.7298 
27 1 37.36 39.4853 35.8282 
28 1 36.0751 37.2596 35.8282 
29 1 38.645 35.7759 33.7298 
30 1 39.93 38.0015 33.7298 
31 1 39.93 39.4853 35.8282 
32 1 38.645 37.2596 35.8282 
33 1 41.215 35.7759 33.7298 
34 1 42.5 38.0015 33.7298 
35 1 42.5 39.4853 35.8282 
36 1 41.215 37.2596 35.8282 
37 1 43.785 35.7759 33.7298 
38 1 45.07 38.0015 33.7298 
39 1 45.07 39.4853 35.8282 
40 1 43.785 37.2596 35.8282 
41 1 46.355 35.7759 33.7298 
42 1 47.64 38.0015 33.7298 
43 1 47.64 39.4853 35.8282 
44 1 46.355 37.2596 35.8282 
45 1 48.9249 35.7759 33.7298 
46 1 50.2099 38.0015 33.7298 
47 1 50.2099 39.4853 35.8282 
48 1 48.9249 37.2596 35.8282 
49 1 51.4949 35.7759 33.7298 
50 1 52.7799 38.0015 33.7298 
51 1 52.7799 39.4853 35.8282 
52 1 51.4949 37.2596 35.8282 
53 1 54.0649 35.7759 33.7298 
54 1 55.3499 38.0015 33.7298 
55 1 55.3499 39.4853 35.8282 
56 1 54.0649 37.2596 35.8282 
57 1 56.6349 35.7759 33.7298 
58 1 57.9199 38.0015 33.7298 
59 1 57.9199 39.4853 35.8282 
60 1 56.6349 37.2596 35.8282 
61 1 59.2048 35.7759 33.7298 
62 1 60.4898 38.0015 33.7298 
63 1 60.4898 39.4853 35.8282 
64 1 59.2048 37.2596 35.8282 
65 1 61.7748 35.7759 33.7298 
66 1 63.0598 38.0015 33.7298 
67 1 63.0598 39.4853 35.8282 
68 1 61.7748 37.2596 35.8282 
69 1 20.6552 40.2272 33.7298 
70 1 21.9402 42.4529 33.7298 
71 1 21.9402 43.9366 35.8282 
72 1 20.6552 41.711 35.8282 
73 1 23.2252 40.2272 33.7298 
74 1 24.5102 42.4529 33.7298 
75 1 24.5102 43.9366 35.8282 
76 1 23.2252 41.711 35.8282 
77 1 25.7952 40.2272 33.7298 
78 1 27.0801 42.4529 33.7298 
79 1 27.0801 43.9366 35.8282 
80 1 25.7952 41.711 35.8282 
81 1 28.3651 40.2272 33.7298 
82 1 29.6501 42.4529 33.7298 
83 1 29.6501 43.9366 35.8282 
84 1 28.3651 41.711 35.8282 
85 1 30.9351 40.2272 33.7298 
86 1 32.2201 42.4529 33.7298 
87 1 32.2201 43.9366 35.8282 
88 1 30.9351 41.711 35.8282 
89 1 33.5051 40.2272 33.7298 
90 1 34.7901 42.4529 33.7298 
91 1 34.7901 43.9366 35.8282 
92 1 33.5051 41.711 35.8282 
93 1 36.0751 40.2272 33.7298 
94 1 37.36 42.4529 33.7298 
95 1 37.36 43.9366 35.8282 
96 1 36.0751 41.711 35.8282 
97 1 38.645 40.2272 33.7298 
98 1 39.93 42.4529 33.7298 
99 1 39.93 43.9366 35.8282 
100 1 38.645 41.711 35.8282 
101 1 41.215 40.2272 33.7298 
102 1 42.5 42.4529 33.7298 
103 1 42.5 43.9366 35.8282 
104 1 41.215 41.711 35.8282 
105 1 43.785 40.2272 33.7298 
106 1 45.07 42.4529 33.7298 
107 1 45.07 43.9366 35.8282 
108 1 43.785 41.711 35.8282 
109 1 46.355 40.2272 33.7298 
110 1 47.64 42.4529 33.7298 
111 1 47.64 43.9366 35.8282 
112 1 46.355 41.711 35.8282 
113 1 48.9249 40.2272 33.7298 
114 1 50.2099 42.4529 33.7298 
115 1 50.2099 43.9366 35.8282 
116 1 48.9249 41.711 35.8282 
117 1 51.4949 40.2272 33.7298 
118 1 52.7799 42.4529 33.7298 
119 1 52.7799 43.9366 35.8282 
120 1 51.4949 41.711 35.8282 
121 1 54.0649 40.2272 33.7298 
122 1 55.3499 42.4529 33.7298 
123 1 55.3499 43.9366 35.8282 
124 1 54.0649 41.711 35.8282 
125 1 56.6349 40.2272 33.7298 
126 1 57.9199 42.4529 33.7298 
127 1 57.9199 43.9366 35.8282 
128 1 56.6349 41.711 35.8282 
129 1 59.2048 40.2272 33.7298 
130 1 60.4898 42.4529 33.7298 
131 1 60.4898 43.9366 35.8282 
132 1 59.2048 41.711 35.8282 
133 1 61.7748 40.2272 33.7298 
134 1 63.0598 42.4529 33.7298 
135 1 63.0598 43.9366 35.8282 
136 1 61.7748 41.711 35.8282 
137 1 20.6552 44.6785 33.7298 
138 1 21.9402 46.9042 33.7298 
139 1 21.9402 48.388 35.8282 
140 1 20.6552 46.1623 35.8282 
141 1 23.2252 44.6785 33.7298 
142 1 24.5102 46.9042 33.7298 
143 1 24.5102 48.388 35.8282 
144 1 23.2252 46.1623 35.8282 
145 1 25.7952 44.6785 33.7298 
146 1 27.0801 46.9042 33.7298 
147 1 27.0801 48.388 35.8282 
148 1 25.7952 46.1623 35.8282 
149 1 28.3651 44.6785 33.7298 
150 1 29.6501 46.9042 33.7298 
151 1 29.6501 48.388 35.8282 
152 1 28.3651 46.1623 35.8282 
153 1 30.9351 44.6785 33.7298 
154 1 32.2201 46.9042 33.7298 
155 1 32.2201 48.388 35.8282 
156 1 30.9351 46.1623 35.8282 
157 1 33.5051 44.6785 33.7298 
158 1 34.7901 46.9042 33.7298 
159 1 34.7901 48.388 35.8282 
160 1 33.5051 46.1623 35.8282 
161 1 36.0751 44.6785 33.7298 
162 1 37.36 46.9042 33.7298 
163 1 37.36 48.388 35.8282 
164 1 36.0751 46.1623 35.8282 
165 1 38.645 44.6785 33.7298 
166 1 39.93 46.9042 33.7298 
167 1 39.93 48.388 35.8282 
168 1 38.645 46.1623 35.8282 
169 1 41.215 44.6785 33.7298 
170 1 42.5 46.9042 33.7298 
171 1 42.5 48.388 35.8282 
172 1 41.215 46.1623 35.8282 
173 1 43.785 44.6785 33.7298 
174 1 45.07 46.9042 33.7298 
175 1 45.07 48.388 35.8282 
176 1 43.785 46.1623 35.8282 
177 1 46.355 44.6785 33.7298 
178 1 47.64 46.9042 33.7298 
179 1 47.64 48.388 35.8282 
180 1 46.355 46.1623 35.8282 
181 1 48.9249 44.6785 33.7298 
182 1 50.2099 46.9042 33.7298 
183 1 50.2099 48.388 35.8282 
184 1 48.9249 46.1623 35.8282 
185 1 51.4949 44.6785 33.7298 
186 1 52.7799 46.9042 33.7298 
187 1 52.7799 48.388 35.8282 
188 1 51.4949 46.1623 35.8282 
189 1 54.0649 44.6785 33.7298 
190 1 55.3499 46.9042 33.7298 
191 1 55.3499 48.388 35.8282 
192 1 54.0649 46.1623 35.8282 
193 1 56.6349 44.6785 33.7298 
194 1 57.9199 46.9042 33.7298 
195 1 57.9199 48.388 35.8282 
196 1 56.6349 46.1623 35.8282 
197 1 59.2048 44.6785 33.7298 
198 1 60.4898 46.9042 33.7298 
199 1 60.4898 48.388 35.8282 
200 1 59.2048 46.1623 35.8282 
201 1 61.7748 44.6785 33.7298 
202 1 63.0598 46.9042 33.7298 
203 1 63.0598 48.388 35.8282 
204 1 61.7748 46.1623 35.8282 
205 1 20.6552 49.1299 33.7298 
206 1 21.9402 51.3555 33.7298 
207 1 21.9402 52.8393 35.8282 
208 1 20.6552 50.6136 35.8282 
209 1 23.2252 49.1299 33.7298 
210 1 24.5102 51.3555 33.7298 
211 1 24.5102 52.8393 35.8282 
212 1 23.2252 50.6136 35.8282 
213 1 25.7952 49.1299 33.7298 
214 1 27.0801 51.3555 33.7298 
215 1 27.0801 52.8393 35.8282 
216 1 25.7952 50.6136 35.8282 
217 1 28.3651 49.1299 33.7298 
218 1 29.6501 51.3555 33.7298 
219 1 29.6501 52.8393 35.8282 
220 1 28.3651 50.6136 35.8282 
221 1 30.9351 49.1299 33.7298 
222 1 32.2201 51.3555 33.7298 
223 1 32.2201 52.8393 35.8282 
224 1 30.9351 50.6136 35.8282 
225 1 33.5051 49.1299 33.7298 
226 1 34.7901 51.3555 33.7298 
227 1 34.7901 52.8393 35.8282 
228 1 33.5051 50.6136 35.8282 
229 1 36.0751 49.1299 33.7298 
230 1 37.36 51.3555 33.7298 
231 1 37.36 52.8393 35.8282 
232 1 36.0751 50.6136 35.8282 
233 1 38.645 49.1299 33.7298 
234 1 39.93 51.3555 33.7298 
235 1 39.93 52.8393 35.8282 
236 1 38.645 50.6136 35.8282 
237 1 41.215 49.1299 33.7298 
238 1 42.5 51.3555 33.7298 
239 1 42.5 52.8393 35.8282 
240 1 41.215 50.6136 35.8282 
241 1 43.785 49.1299 33.7298 
242 1 45.07 51.3555 33.7298 
243 1 45.07 52.8393 35.8282 
244 1 43.785 50.6136 35.8282 
245 1 46.355 49.1299 33.7298 
246 1 47.64 51.3555 33.7298 
247 1 47.64 52.8393 35.8282 
248 1 46.355 50.6136 35.8282 
249 1 48.9249 49.1299 33.7298 
250 1 50.2099 51.3555 33.7298 
251 1 50.2099 52.8393 35.8282 
252 1 48.9249 50.6136 35.8282 
253 1 51.4949 49.1299 33.7298 
254 1 52.7799 51.3555 33.7298 
255 1 52.7799 52.8393 35.8282 
256 1 51.4949 50.6136 35.8282 
257 1 54.0649 49.1299 33.7298 
258 1 55.3499 51.3555 33.7298 
259 1 55.3499 52.8393 35.8282 
260 1 54.0649 50.6136 35.8282 
261 1 56.6349 49.1299 33.7298 
262 1 57.9199 51.3555 33.7298 
263 1 57.9199 52.8393 35.8282 
264 1 56.6349 50.6136 35.8282 
265 1 59.2048 49.1299 33.7298 
266 1 60.4898 51.3555 33.7298 
267 1 60.4898 52.8393 35.8282 
268 1 59.2048 50.6136 35.8282 
269 1 61.7748 49.1299 33.7298 
270 1 63.0598 51.3555 33.7298 
271 1 63.0598 52.8393 35.8282 
272 1 61.7748 50.6136 35.8282 
273 1 20.6552 53.5812 33.7298 
274 1 21.9402 55.8068 33.7298 
275 1 21.9402 57.2906 35.8282 
276 1 20.6552 55.065 35.8282 
277 1 23.2252 53.5812 33.7298 
278 1 24.5102 55.8068 33.7298 
279 1 24.5102 57.2906 35.8282 
280 1 23.2252 55.065 35.8282 
281 1 25.7952 53.5812 33.7298 
282 1 27.0801 55.8068 33.7298 
283 1 27.0801 57.2906 35.8282 
284 1 25.7952 55.065 35.8282 
285 1 28.3651 53.5812 33.7298 
286 1 29.6501 55.8068 33.7298 
287 1 29.6501 57.2906 35.8282 
288 1 28.3651 55.065 35.8282 
289 1 30.9351 53.5812 33.7298 
290 1 32.2201 55.8068 33.7298 
291 1 32.2201 57.2906 35.8282 
292 1 30.9351 55.065 35.8282 
293 1 33.5051 53.5812 33.7298 
294 1 34.7901 55.8068 33.7298 
295 1 34.7901 57.2906 35.8282 
296 1 33.5051 55.065 35.8282 
297 1 36.0751 53.5812 33.7298 
298 1 37.36 55.8068 33.7298 
299 1 37.36 57.2906 35.8282 
300 1 36.0751 55.065 35.8282 
301 1 38.645 53.5812 33.7298 
302 1 39.93 55.8068 33.7298 
303 1 39.93 57.2906 35.8282 
304 1 38.645 55.065 35.8282 
305 1 41.215 53.5812 33.7298 
306 1 42.5 55.8068 33.7298 
307 1 42.5 57.2906 35.8282 
308 1 41.215 55.065 35.8282 
309 1 43.785 53.5812 33.7298 
310 1 45.07 55.8068 33.7298 
311 1 45.07 57.2906 35.8282 
312 1 43.785 55.065 35.8282 
313 1 46.355 53.5812 33.7298 
314 1 47.64 55.8068 33.7298 
315 1 47.64 57.2906 35.8282 
316 1 46.355 55.065 35.8282 
317 1 48.9249 53.5812 33.7298 
318 1 50.2099 55.8068 33.7298 
319 1 50.2099 57.2906 35.8282 
320 1 48.9249 55.065 35.8282 
321 1 51.4949 53.5812 33.7298 
322 1 52.7799 55.8068 33.7298 
323 1 52.7799 57.2906 35.8282 
324 1 51.4949 55.065 35.8282 
325 1 54.0649 53.5812 33.7298 
326 1 55.3499 55.8068 33.7298 
327 1 55.3499 57.2906 35.8282 
328 1 54.0649 55.065 35.8282 
329 1 56.6349 53.5812 33.7298 
330 1 57.9199 55.8068 33.7298 
331 1 57.9199 57.2906 35.8282 
332 1 56.6349 55.065 35.8282 
333 1 59.2048 53.5812 33.7298 
334 1 60.4898 55.8068 33.7298 
335 1 60.4898 57.2906 35.8282 
336 1 59.2048 55.065 35.8282 
337 1 61.7748 53.5812 33.7298 
338 1 63.0598 55.8068 33.7298 
339 1 63.0598 57.2906 35.8282 
340 1 61.7748 55.065 35.8282 
341 1 20.6552 58.0325 33.7298 
342 1 21.9402 60.2582 33.7298 
343 1 21.9402 61.742 35.8282 
344 1 20.6552 59.5163 35.8282 
345 1 23.2252 58.0325 33.7298 
346 1 24.5102 60.2582 33.7298 
347 1 24.5102 61.742 35.8282 
348 1 23.2252 59.5163 35.8282 
349 1 25.7952 58.0325 33.7298 
350 1 27.0801 60.2582 33.7298 
351 1 27.0801 61.742 35.8282 
352 1 25.7952 59.5163 35.8282 
353 1 28.3651 58.0325 33.7298 
354 1 29.6501 60.2582 33.7298 
355 1 29.6501 61.742 35.8282 
356 1 28.3651 59.5163 35.8282 
357 1 30.9351 58.0325 33.7298 
358 1 32.2201 60.2582 33.7298 
359 1 32.2201 61.742 35.8282 
360 1 30.9351 59.5163 35.8282 
361 1 33.5051 58.0325 33.7298 
362 1 34.7901 60.2582 33.7298 
363 1 34.7901 61.742 35.8282 
364 1 33.5051 59.5163 35.8282 
365 1 36.0751 58.0325 33.7298 
366 1 37.36 60.2582 33.7298 
367 1 37.36 61.742 35.8282 
368 1 36.0751 59.5163 35.8282 
369 1 38.645 58.0325 33.7298 
370 1 39.93 60.2582 33.7298 
371 1 39.93 61.742 35.8282 
372 1 38.645 59.5163 35.8282 
373 1 41.215 58.0325 33.7298 
374 1 42.5 60.2582 33.7298 
375 1 42.5 61.742 35.8282 
376 1 41.215 59.5163 35.8282 
377 1 43.785 58.0325 33.7298 
378 1 45.07 60.2582 33.7298 
379 1 45.07 61.742 35.8282 
380 1 43.785 59.5163 35.8282 
381 1 46.355 58.0325 33.7298 
382 1 47.64 60.2582 33.7298 
383 1 47.64 61.742 35.8282 
384 1 46.355 59.5163 35.8282 
385 1 48.9249 58.0325 33.7298 
386 1 50.2099 60.2582 33.7298 
387 1 50.2099 61.742 35.8282 
388 1 48.9249 59.5163 35.8282 
389 1 51.4949 58.0325 33.7298 
390 1 52.7799 60.2582 33.7298 
391 1 52.7799 61.742 35.8282 
392 1 51.4949 59.5163 35.8282 
393 1 54.0649 58.0325 33.7298 
394 1 55.3499 60.2582 33.7298 
395 1 55.3499 61.742 35.8282 
396 1 54.0649 59.5163 35.8282 
397 1 56.6349 58.0325 33.7298 
398 1 57.9199 60.2582 33.7298 
399 1 57.9199 61.742 35.8282 
400 1 56.6349 59.5163 35.8282 
401 1 59.2048 58.0325 33.7298 
402 1 60.4898 60.2582 33.7298 
403 1 60.4898 61.742 35.8282 
404 1 59.2048 59.5163 35.8282 
405 1 61.7748 58.0325 33.7298 
406 1 63.0598 60.2582 33.7298 
407 1 63.0598 61.742 35.8282 
408 1 61.7748 59.5163 35.8282 
409 1 20.6552 62.4838 33.7298 
410 1 21.9402 64.7095 33.7298 
411 1 21.9402 66.1933 35.8282 
412 1 20.6552 63.9676 35.8282 
413 1 23.2252 62.4838 33.7298 
414 1 24.5102 64.7095 33.7298 
415 1 24.5102 66.1933 35.8282 
416 1 23.2252 63.9676 35.8282 
417 1 25.7952 62.4838 33.7298 
418 1 27.0801 64.7095 33.7298 
419 1 27.0801 66.1933 35.8282 
420 1 25.7952 63.9676 35.8282 
421 1 28.3651 62.4838 33.7298 
422 1 29.6501 64.7095 33.7298 
423 1 29.6501 66.1933 35.8282 
424 1 28.3651 63.9676 35.8282 
425 1 30.9351 62.4838 33.7298 
426 1 32.2201 64.7095 33.7298 
427 1 32.2201 66.1933 35.8282 
428 1 30.9351 63.9676 35.8282 
429 1 33.5051 62.4838 33.7298 
430 1 34.7901 64.7095 33.7298 
431 1 34.7901 66.1933 35.8282 
432 1 33.5051 63.9676 35.8282 
433 1 36.0751 62.4838 33.7298 
434 1 37.36 64.7095 33.7298 
435 1 37.36 66.1933 35.8282 
436 1 36.0751 63.9676 35.8282 
437 1 38.645 62.4838 33.7298 
438 1 39.93 64.7095 33.7298 
439 1 39.93 66.1933 35.8282 
440 1 38.645 63.9676 35.8282 
441 1 41.215 62.4838 33.7298 
442 1 42.5 64.7095 33.7298 
443 1 42.5 66.1933 35.8282 
444 1 41.215 63.9676 35.8282 
445 1 43.785 62.4838 33.7298 
446 1 45.07 64.7095 33.7298 
447 1 45.07 66.1933 35.8282 
448 1 43.785 63.9676 35.8282 
449 1 46.355 62.4838 33.7298 
450 1 47.64 64.7095 33.7298 
451 1 47.64 66.1933 35.8282 
452 1 46.355 63.9676 35.8282 
453 1 48.9249 62.4838 33.7298 
454 1 50.2099 64.7095 33.7298 
455 1 50.2099 66.1933 35.8282 
456 1 48.9249 63.9676 35.8282 
457 1 51.4949 62.4838 33.7298 
458 1 52.7799 64.7095 33.7298 
459 1 52.7799 66.1933 35.8282 
460 1 51.4949 63.9676 35.8282 
461 1 54.0649 62.4838 33.7298 
462 1 55.3499 64.7095 33.7298 
463 1 55.3499 66.1933 35.8282 
464 1 54.0649 63.9676 35.8282 
465 1 56.6349 62.4838 33.7298 
466 1 57.9199 64.7095 33.7298 
467 1 57.9199 66.1933 35.8282 
468 1 56.6349 63.9676 35.8282 
469 1 59.2048 62.4838 33.7298 
470 1 60.4898 64.7095 33.7298 
471 1 60.4898 66.1933 35.8282 
472 1 59.2048 63.9676 35.8282 
473 1 61.7748 62.4838 33.7298 
474 1 63.0598 64.7095 33.7298 
475 1 63.0598 66.1933 35.8282 
476 1 61.7748 63.9676 35.8282 
477 1 20.6552 66.9352 33.7298 
478 1 21.9402 69.1608 33.7298 
479 1 21.9402 70.6446 35.8282 
480 1 20.6552 68.4189 35.8282 
481 1 23.2252 66.9352 33.7298 
482 1 24.5102 69.1608 33.7298 
483 1 24.5102 70.6446 35.8282 
484 1 23.2252 68.4189 35.8282 
485 1 25.7952 66.9352 33.7298 
486 1 27.0801 69.1608 33.7298 
487 1 27.0801 70.6446 35.8282 
488 1 25.7952 68.4189 35.8282 
489 1 28.3651 66.9352 33.7298 
490 1 29.6501 69.1608 33.7298 
491 1 29.6501 70.6446 35.8282 
492 1 28.3651 68.4189 35.8282 
493 1 30.9351 66.9352 33.7298 
494 1 32.2201 69.1608 33.7298 
495 1 32.2201 70.6446 35.8282 
496 1 30.9351 68.4189 35.8282 
497 1 33.5051 66.9352 33.7298 
498 1 34.7901 69.1608 33.7298 
499 1 34.7901 70.6446 35.8282 
500 1 33.5051 68.4189 35.8282 
501 1 36.0751 66.9352 33.7298 
502 1 37.36 69.1608 33.7298 
503 1 37.36 70.6446 35.8282 
504 1 36.0751 68.4189 35.8282 
505 1 38.645 66.9352 33.7298 
506 1 39.93 69.1608 33.7298 
507 1 39.93 70.6446 35.8282 
508 1 38.645 68.4189 35.8282 
509 1 41.215 66.9352 33.7298 
510 1 42.5 69.1608 33.7298 
511 1 42.5 70.6446 35.8282 
512 1 41.215 68.4189 35.8282 
513 1 43.785 66.9352 33.7298 
514 1 45.07 69.1608 33.7298 
515 1 45.07 70.6446 35.8282 
516 1 43.785 68.4189 35.8282 
517 1 46.355 66.9352 33.7298 
518 1 47.64 69.1608 33.7298 
519 1 47.64 70.6446 35.8282 
520 1 46.355 68.4189 35.8282 
521 1 48.9249 66.9352 33.7298 
522 1 50.2099 69.1608 33.7298 
523 1 50.2099 70.6446 35.8282 
524 1 48.9249 68.4189 35.8282 
525 1 51.4949 66.9352 33.7298 
526 1 52.7799 69.1608 33.7298 
527 1 52.7799 70.6446 35.8282 
528 1 51.4949 68.4189 35.8282 
529 1 54.0649 66.9352 33.7298 
530 1 55.3499 69.1608 33.7298 
531 1 55.3499 70.6446 35.8282 
532 1 54.0649 68.4189 35.8282 
533 1 56.6349 66.9352 33.7298 
534 1 57.9199 69.1608 33.7298 
535 1 57.9199 70.6446 35.8282 
536 1 56.6349 68.4189 35.8282 
537 1 59.2048 66.9352 33.7298 
538 1 60.4898 69.1608 33.7298 
539 1 60.4898 70.6446 35.8282 
540 1 59.2048 68.4189 35.8282 
541 1 61.7748 66.9352 33.7298 
542 1 63.0598 69.1608 33.7298 
543 1 63.0598 70.6446 35.8282 
544 1 61.7748 68.4189 35.8282 
545 1 20.6552 71.3865 33.7298 
546 1 21.9402 73.6122 33.7298 
547 1 21.9402 75.0959 35.8282 
548 1 20.6552 72.8703 35.8282 
549 1 23.2252 71.3865 33.7298 
550 1 24.5102 73.6122 33.7298 
551 1 24.5102 75.0959 35.8282 
552 1 23.2252 72.8703 35.8282 
553 1 25.7952 71.3865 33.7298 
554 1 27.0801 73.6122 33.7298 
555 1 27.0801 75.0959 35.8282 
556 1 25.7952 72.8703 35.8282 
557 1 28.3651 71.3865 33.7298 
558 1 29.6501 73.6122 33.7298 
559 1 29.6501 75.0959 35.8282 
560 1 28.3651 72.8703 35.8282 
561 1 30.9351 71.3865 33.7298 
562 1 32.2201 73.6122 33.7298 
563 1 32.2201 75.0959 35.8282 
564 1 30.9351 72.8703 35.8282 
565 1 33.5051 71.3865 33.7298 
566 1 34.7901 73.6122 33.7298 
567 1 34.7901 75.0959 35.8282 
568 1 33.5051 72.8703 35.8282 
569 1 36.0751 71.3865 33.7298 
570 1 37.36 73.6122 33.7298 
571 1 37.36 75.0959 35.8282 
572 1 36.0751 72.8703 35.8282 
573 1 38.645 71.3865 33.7298 
574 1 39.93 73.6122 33.7298 
575 1 39.93 75.0959 35.8282 
576 1 38.645 72.8703 35.8282 
577 1 41.215 71.3865 33.7298 
578 1 42.5 73.6122 33.7298 
579 1 42.5 75.0959 35.8282 
580 1 41.215 72.8703 35.8282 
581 1 43.785 71.3865 33.7298 
582 1 45.07 73.6122 33.7298 
583 1 45.07 75.0959 35.8282 
584 1 43.785 72.8703 35.8282 
585 1 46.355 71.3865 33.7298 
586 1 47.64 73.6122 33.7298 
587 1 47.64 75.0959 35.8282 
588 1 46.355 72.8703 35.8282 
589 1 48.9249 71.3865 33.7298 
590 1 50.2099 73.6122 33.7298 
591 1 50.2099 75.0959 35.8282 
592 1 48.9249 72.8703 35.8282 
593 1 51.4949 71.3865 33.7298 
594 1 52.7799 73.6122 33.7298 
595 1 52.7799 75.0959 35.8282 
596 1 51.4949 72.8703 35.8282 
597 1 54.0649 71.3865 33.7298 
598 1 55.3499 73.6122 33.7298 
599 1 55.3499 75.0959 35.8282 
600 1 54.0649 72.8703 35.8282 
601 1 56.6349 71.3865 33.7298 
602 1 57.9199 73.6122 33.7298 
603 1 57.9199 75.0959 35.8282 
604 1 56.6349 72.8703 35.8282 
605 1 59.2048 71.3865 33.7298 
606 1 60.4898 73.6122 33.7298 
607 1 60.4898 75.0959 35.8282 
608 1 59.2048 72.8703 35.8282 
609 1 61.7748 71.3865 33.7298 
610 1 63.0598 73.6122 33.7298 
611 1 63.0598 75.0959 35.8282 
612 1 61.7748 72.8703 35.8282 
613 1 20.6552 75.8378 33.7298 
614 1 21.9402 78.0635 33.7298 
615 1 21.9402 79.5473 35.8282 
616 1 20.6552 77.3216 35.8282 
617 1 23.2252 75.8378 33.7298 
618 1 24.5102 78.0635 33.7298 
619 1 24.5102 79.5473 35.8282 
620 1 23.2252 77.3216 35.8282 
621 1 25.7952 75.8378 33.7298 
622 1 27.0801 78.0635 33.7298 
623 1 27.0801 79.5473 35.8282 
624 1 25.7952 77.3216 35.8282 
625 1 28.3651 75.8378 33.7298 
626 1 29.6501 78.0635 33.7298 
627 1 29.6501 79.5473 35.8282 
628 1 28.3651 77.3216 35.8282 
629 1 30.9351 75.8378 33.7298 
630 1 32.2201 78.0635 33.7298 
631 1 32.2201 79.5473 35.8282 
632 1 30.9351 77.3216 35.8282 
633 1 33.5051 75.8378 33.7298 
634 1 34.7901 78.0635 33.7298 
635 1 34.7901 79.5473 35.8282 
636 1 33.5051 77.3216 35.8282 
637 1 36.0751 75.8378 33.7298 
638 1 37.36 78.0635 33.7298 
639 1 37.36 79.5473 35.8282 
640 1 36.0751 77.3216 35.8282 
641 1 38.645 75.8378 33.7298 
642 1 39.93 78.0635 33.7298 
643 1 39.93 79.5473 35.8282 
644 1 38.645 77.3216 35.8282 
645 1 41.215 75.8378 33.7298 
646 1 42.5 78.0635 33.7298 
647 1 42.5 79.5473 35.8282 
648 1 41.215 77.3216 35.8282 
649 1 43.785 75.8378 33.7298 
650 1 45.07 78.0635 33.7298 
651 1 45.07 79.5473 35.8282 
652 1 43.785 77.3216 35.8282 
653 1 46.355 75.8378 33.7298 
654 1 47.64 78.0635 33.7298 
655 1 47.64 79.5473 35.8282 
656 1 46.355 77.3216 35.8282 
657 1 48.9249 75.8378 33.7298 
658 1 50.2099 78.0635 33.7298 
659 1 50.2099 79.5473 35.8282 
660 1 48.9249 77.3216 35.8282 
661 1 51.4949 75.8378 33.7298 
662 1 52.7799 78.0635 33.7298 
663 1 52.7799 79.5473 35.8282 
664 1 51.4949 77.3216 35.8282 
665 1 54.0649 75.8378 33.7298 
666 1 55.3499 78.0635 33.7298 
667 1 55.3499 79.5473 35.8282 
668 1 54.0649 77.3216 35.8282 
669 1 56.6349 75.8378 33.7298 
670 1 57.9199 78.0635 33.7298 
671 1 57.9199 79.5473 35.8282 
672 1 56.6349 77.3216 35.8282 
673 1 59.2048 75.8378 33.7298 
674 1 60.4898 78.0635 33.7298 
675 1 60.4898 79.5473 35.8282 
676 1 59.2048 77.3216 35.8282 
677 1 61.7748 75.8378 33.7298 
678 1 63.0598 78.0635 33.7298 
679 1 63.0598 79.5473 35.8282 
680 1 61.7748 77.3216 35.8282 
681 1 20.6552 80.2892 33.7298 
682 1 21.9402 82.5148 33.7298 
683 1 21.9402 83.9986 35.8282 
684 1 20.6552 81.7729 35.8282 
685 1 23.2252 80.2892 33.7298 
686 1 24.5102 82.5148 33.7298 
687 1 24.5102 83.9986 35.8282 
688 1 23.2252 81.7729 35.8282 
689 1 25.7952 80.2892 33.7298 
690 1 27.0801 82.5148 33.7298 
691 1 27.0801 83.9986 35.8282 
692 1 25.7952 81.7729 35.8282 
693 1 28.3651 80.2892 33.7298 
694 1 29.6501 82.5148 33.7298 
695 1 29.6501 83.9986 35.8282 
696 1 28.3651 81.7729 35.8282 
697 1 30.9351 80.2892 33.7298 
698 1 32.2201 82.5148 33.7298 
699 1 32.2201 83.9986 35.8282 
700 1 30.9351 81.7729 35.8282 
701 1 33.5051 80.2892 33.7298 
702 1 34.7901 82.5148 33.7298 
703 1 34.7901 83.9986 35.8282 
704 1 33.5051 81.7729 35.8282 
705 1 36.0751 80.2892 33.7298 
706 1 37.36 82.5148 33.7298 
707 1 37.36 83.9986 35.8282 
708 1 36.0751 81.7729 35.8282 
709 1 38.645 80.2892 33.7298 
710 1 39.93 82.5148 33.7298 
711 1 39.93 83.9986 35.8282 
712 1 38.645 81.7729 35.8282 
713 1 41.215 80.2892 33.7298 
714 1 42.5 82.5148 33.7298 
715 1 42.5 83.9986 35.8282 
716 1 41.215 81.7729 35.8282 
717 1 43.785 80.2892 33.7298 
718 1 45.07 82.5148 33.7298 
719 1 45.07 83.9986 35.8282 
720 1 43.785 81.7729 35.8282 
721 1 46.355 80.2892 33.7298 
722 1 47.64 82.5148 33.7298 
723 1 47.64 83.9986 35.8282 
724 1 46.355 81.7729 35.8282 
725 1 48.9249 80.2892 33.7298 
726 1 50.2099 82.5148 33.7298 
727 1 50.2099 83.9986 35.8282 
728 1 48.9249 81.7729 35.8282 
729 1 51.4949 80.2892 33.7298 
730 1 52.7799 82.5148 33.7298 
731 1 52.7799 83.9986 35.8282 
732 1 51.4949 81.7729 35.8282 
733 1 54.0649 80.2892 33.7298 
734 1 55.3499 82.5148 33.7298 
735 1 55.3499 83.9986 35.8282 
736 1 54.0649 81.7729 35.8282 
737 1 56.6349 80.2892 33.7298 
738 1 57.9199 82.5148 33.7298 
739 1 57.9199 83.9986 35.8282 
740 1 56.6349 81.7729 35.8282 
741 1 59.2048 80.2892 33.7298 
742 1 60.4898 82.5148 33.7298 
743 1 60.4898 83.9986 35.8282 
744 1 59.2048 81.7729 35.8282 
745 1 61.7748 80.2892 33.7298 
746 1 63.0598 82.5148 33.7298 
747 1 63.0598 83.9986 35.8282 
748 1 61.7748 81.7729 35.8282 
749 1 20.6552 84.7405 33.7298 
750 1 21.9402 86.9661 33.7298 
751 1 21.9402 88.4499 35.8282 
752 1 20.6552 86.2243 35.8282 
753 1 23.2252 84.7405 33.7298 
754 1 24.5102 86.9661 33.7298 
755 1 24.5102 88.4499 35.8282 
756 1 23.2252 86.2243 35.8282 
757 1 25.7952 84.7405 33.7298 
758 1 27.0801 86.9661 33.7298 
759 1 27.0801 88.4499 35.8282 
760 1 25.7952 86.2243 35.8282 
761 1 28.3651 84.7405 33.7298 
762 1 29.6501 86.9661 33.7298 
763 1 29.6501 88.4499 35.8282 
764 1 28.3651 86.2243 35.8282 
765 1 30.9351 84.7405 33.7298 
766 1 32.2201 86.9661 33.7298 
767 1 32.2201 88.4499 35.8282 
768 1 30.9351 86.2243 35.8282 
769 1 33.5051 84.7405 33.7298 
770 1 34.7901 86.9661 33.7298 
771 1 34.7901 88.4499 35.8282 
772 1 33.5051 86.2243 35.8282 
773 1 36.0751 84.7405 33.7298 
774 1 37.36 86.9661 33.7298 
775 1 37.36 88.4499 35.8282 
776 1 36.0751 86.2243 35.8282 
777 1 38.645 84.7405 33.7298 
778 1 39.93 86.9661 33.7298 
779 1 39.93 88.4499 35.8282 
780 1 38.645 86.2243 35.8282 
781 1 41.215 84.7405 33.7298 
782 1 42.5 86.9661 33.7298 
783 1 42.5 88.4499 35.8282 
784 1 41.215 86.2243 35.8282 
785 1 43.785 84.7405 33.7298 
786 1 45.07 86.9661 33.7298 
787 1 45.07 88.4499 35.8282 
788 1 43.785 86.2243 35.8282 
789 1 46.355 84.7405 33.7298 
790 1 47.64 86.9661 33.7298 
791 1 47.64 88.4499 35.8282 
792 1 46.355 86.2243 35.8282 
793 1 48.9249 84.7405 33.7298 
794 1 50.2099 86.9661 33.7298 
795 1 50.2099 88.4499 35.8282 
796 1 48.9249 86.2243 35.8282 
797 1 51.4949 84.7405 33.7298 
798 1 52.7799 86.9661 33.7298 
799 1 52.7799 88.4499 35.8282 
800 1 51.4949 86.2243 35.8282 
801 1 54.0649 84.7405 33.7298 
802 1 55.3499 86.9661 33.7298 
803 1 55.3499 88.4499 35.8282 
804 1 54.0649 86.2243 35.8282 
805 1 56.6349 84.7405 33.7298 
806 1 57.9199 86.9661 33.7298 
807 1 57.9199 88.4499 35.8282 
808 1 56.6349 86.2243 35.8282 
809 1 59.2048 84.7405 33.7298 
810 1 60.4898 86.9661 33.7298 
811 1 60.4898 88.4499 35.8282 
812 1 59.2048 86.2243 35.8282 
813 1 61.7748 84.7405 33.7298 
814 1 63.0598 86.9661 33.7298 
815 1 63.0598 88.4499 35.8282 
816 1 61.7748 86.2243 35.8282 
817 1 20.6552 89.1918 33.7298 
818 1 21.9402 91.4175 33.7298 
819 1 21.9402 92.9012 35.8282 
820 1 20.6552 90.6756 35.8282 
821 1 23.2252 89.1918 33.7298 
822 1 24.5102 91.4175 33.7298 
823 1 24.5102 92.9012 35.8282 
824 1 23.2252 90.6756 35.8282 
825 1 25.7952 89.1918 33.7298 
826 1 27.0801 91.4175 33.7298 
827 1 27.0801 92.9012 35.8282 
828 1 25.7952 90.6756 35.8282 
829 1 28.3651 89.1918 33.7298 
830 1 29.6501 91.4175 33.7298 
831 1 29.6501 92.9012 35.8282 
832 1 28.3651 90.6756 35.8282 
833 1 30.9351 89.1918 33.7298 
834 1 32.2201 91.4175 33.7298 
835 1 32.2201 92.9012 35.8282 
836 1 30.9351 90.6756 35.8282 
837 1 33.5051 89.1918 33.7298 
838 1 34.7901 91.4175 33.7298 
839 1 34.7901 92.9012 35.8282 
840 1 33.5051 90.6756 35.8282 
841 1 36.0751 89.1918 33.7298 
842 1 37.36 91.4175 33.7298 
843 1 37.36 92.9012 35.8282 
844 1 36.0751 90.6756 35.8282 
845 1 38.645 89.1918 33.7298 
846 1 39.93 91.4175 33.7298 
847 1 39.93 92.9012 35.8282 
848 1 38.645 90.6756 35.8282 
849 1 41.215 89.1918 33.7298 
850 1 42.5 91.4175 33.7298 
851 1 42.5 92.9012 35.8282 
852 1 41.215 90.6756 35.8282 
853 1 43.785 89.1918 33.7298 
854 1 45.07 91.4175 33.7298 
855 1 45.07 92.9012 35.8282 
856 1 43.785 90.6756 35.8282 
857 1 46.355 89.1918 33.7298 
858 1 47.64 91.4175 33.7298 
859 1 47.64 92.9012 35.8282 
860 1 46.355 90.6756 35.8282 
861 1 48.9249 89.1918 33.7298 
862 1 50.2099 91.4175 33.7298 
863 1 50.2099 92.9012 35.8282 
864 1 48.9249 90.6756 35.8282 
865 1 51.4949 89.1918 33.7298 
866 1 52.7799 91.4175 33.7298 
867 1 52.7799 92.9012 35.8282 
868 1 51.4949 90.6756 35.8282 
869 1 54.0649 89.1918 33.7298 
870 1 55.3499 91.4175 33.7298 
871 1 55.3499 92.9012 35.8282 
872 1 54.0649 90.6756 35.8282 
873 1 56.6349 89.1918 33.7298 
874 1 57.9199 91.4175 33.7298 
875 1 57.9199 92.9012 35.8282 
876 1 56.6349 90.6756 35.8282 
877 1 59.2048 89.1918 33.7298 
878 1 60.4898 91.4175 33.7298 
879 1 60.4898 92.9012 35.8282 
880 1 59.2048 90.6756 35.8282 
881 1 61.7748 89.1918 33.7298 
882 1 63.0598 91.4175 33.7298 
883 1 63.0598 92.9012 35.8282 
884 1 61.7748 90.6756 35.8282 
885 1 20.6552 93.6431 33.7298 
886 1 21.9402 95.8688 33.7298 
887 1 21.9402 97.3526 35.8282 
888 1 20.6552 95.1269 35.8282 
889 1 23.2252 93.6431 33.7298 
890 1 24.5102 95.8688 33.7298 
891 1 24.5102 97.3526 35.8282 
892 1 23.2252 95.1269 35.8282 
893 1 25.7952 93.6431 33.7298 
894 1 27.0801 95.8688 33.7298 
895 1 27.0801 97.3526 35.8282 
896 1 25.7952 95.1269 35.8282 
897 1 28.3651 93.6431 33.7298 
898 1 29.6501 95.8688 33.7298 
899 1 29.6501 97.3526 35.8282 
900 1 28.3651 95.1269 35.8282 
901 1 30.9351 93.6431 33.7298 
902 1 32.2201 95.8688 33.7298 
903 1 32.2201 97.3526 35.8282 
904 1 30.9351 95.1269 35.8282 
905 1 33.5051 93.6431 33.7298 
906 1 34.7901 95.8688 33.7298 
907 1 34.7901 97.3526 35.8282 
908 1 33.5051 95.1269 35.8282 
909 1 36.0751 93.6431 33.7298 
910 1 37.36 95.8688 33.7298 
911 1 37.36 97.3526 35.8282 
912 1 36.0751 95.1269 35.8282 
913 1 38.645 93.6431 33.7298 
914 1 39.93 95.8688 33.7298 
915 1 39.93 97.3526 35.8282 
916 1 38.645 95.1269 35.8282 
917 1 41.215 93.6431 33.7298 
918 1 42.5 95.8688 33.7298 
919 1 42.5 97.3526 35.8282 
920 1 41.215 95.1269 35.8282 
921 1 43.785 93.6431 33.7298 
922 1 45.07 95.8688 33.7298 
923 1 45.07 97.3526 35.8282 
924 1 43.785 95.1269 35.8282 
925 1 46.355 93.6431 33.7298 
926 1 47.64 95.8688 33.7298 
927 1 47.64 97.3526 35.8282 
928 1 46.355 95.1269 35.8282 
929 1 48.9249 93.6431 33.7298 
930 1 50.2099 95.8688 33.7298 
931 1 50.2099 97.3526 35.8282 
932 1 48.9249 95.1269 35.8282 
933 1 51.4949 93.6431 33.7298 
934 1 52.7799 95.8688 33.7298 
935 1 52.7799 97.3526 35.8282 
936 1 51.4949 95.1269 35.8282 
937 1 54.0649 93.6431 33.7298 
938 1 55.3499 95.8688 33.7298 
939 1 55.3499 97.3526 35.8282 
940 1 54.0649 95.1269 35.8282 
941 1 56.6349 93.6431 33.7298 
942 1 57.9199 95.8688 33.7298 
943 1 57.9199 97.3526 35.8282 
944 1 56.6349 95.1269 35.8282 
945 1 59.2048 93.6431 33.7298 
946 1 60.4898 95.8688 33.7298 
947 1 60.4898 97.3526 35.8282 
948 1 59.2048 95.1269 35.8282 
949 1 61.7748 93.6431 33.7298 
950 1 63.0598 95.8688 33.7298 
951 1 63.0598 97.3526 35.8282 
952 1 61.7748 95.1269 35.8282 
953 1 20.6552 98.0945 33.7298 
954 1 21.9402 100.32 33.7298 
955 1 21.9402 101.804 35.8282 
956 1 20.6552 99.5782 35.8282 
957 1 23.2252 98.0945 33.7298 
958 1 24.5102 100.32 33.7298 
959 1 24.5102 101.804 35.8282 
960 1 23.2252 99.5782 35.8282 
961 1 25.7952 98.0945 33.7298 
962 1 27.0801 100.32 33.7298 
963 1 27.0801 101.804 35.8282 
964 1 25.7952 99.5782 35.8282 
965 1 28.3651 98.0945 33.7298 
966 1 29.6501 100.32 33.7298 
967 1 29.6501 101.804 35.8282 
968 1 28.3651 99.5782 35.8282 
969 1 30.9351 98.0945 33.7298 
970 1 32.2201 100.32 33.7298 
971 1 32.2201 101.804 35.8282 
972 1 30.9351 99.5782 35.8282 
973 1 33.5051 98.0945 33.7298 
974 1 34.7901 100.32 33.7298 
975 1 34.7901 101.804 35.8282 
976 1 33.5051 99.5782 35.8282 
977 1 36.0751 98.0945 33.7298 
978 1 37.36 100.32 33.7298 
979 1 37.36 101.804 35.8282 