ITEM: TIMESTEP
40
ITEM: NUMBER OF ATOMS
19652
ITEM: BOX BOUNDS pp pp pp
7.9128506310531206e+00 7.7087149368946683e+01
7.9128506310531206e+00 7.7087149368946683e+01
7.9128506310531206e+00 7.7087149368946683e+01
ITEM: ATOMS id type xu yu zu 
1 2 7.91285 7.91285 7.91285 
2 2 9.94739 9.94739 7.91285 
3 2 9.94739 7.91285 9.94739 
4 2 7.91285 9.94739 9.94739 
5 2 11.9819 7.91285 7.91285 
6 2 14.0165 9.94739 7.91285 
7 2 14.0165 7.91285 9.94739 
8 2 11.9819 9.94739 9.94739 
9 2 16.051 7.91285 7.91285 
10 2 18.0855 9.94739 7.91285 
11 2 18.0855 7.91285 9.94739 
12 2 16.051 9.94739 9.94739 
13 2 20.1201 7.91285 7.91285 
14 2 22.1546 9.94739 7.91285 
15 2 22.1546 7.91285 9.94739 
16 2 20.1201 9.94739 9.94739 
17 2 24.1892 7.91285 7.91285 
18 2 26.2237 9.94739 7.91285 
19 2 26.2237 7.91285 9.94739 
20 2 24.1892 9.94739 9.94739 
21 2 28.2582 7.91285 7.91285 
22 2 30.2928 9.94739 7.91285 
23 2 30.2928 7.91285 9.94739 
24 2 28.2582 9.94739 9.94739 
25 2 32.3273 7.91285 7.91285 
26 2 34.3618 9.94739 7.91285 
27 2 34.3618 7.91285 9.94739 
28 2 32.3273 9.94739 9.94739 
29 2 36.3964 7.91285 7.91285 
30 2 38.4309 9.94739 7.91285 
31 2 38.4309 7.91285 9.94739 
32 2 36.3964 9.94739 9.94739 
33 2 40.4655 7.91285 7.91285 
34 2 42.5 9.94739 7.91285 
35 2 42.5 7.91285 9.94739 
36 2 40.4655 9.94739 9.94739 
37 2 44.5345 7.91285 7.91285 
38 2 46.5691 9.94739 7.91285 
39 2 46.5691 7.91285 9.94739 
40 2 44.5345 9.94739 9.94739 
41 2 48.6036 7.91285 7.91285 
42 2 50.6382 9.94739 7.91285 
43 2 50.6382 7.91285 9.94739 
44 2 48.6036 9.94739 9.94739 
45 2 52.6727 7.91285 7.91285 
46 2 54.7072 9.94739 7.91285 
47 2 54.7072 7.91285 9.94739 
48 2 52.6727 9.94739 9.94739 
49 2 56.7418 7.91285 7.91285 
50 2 58.7763 9.94739 7.91285 
51 2 58.7763 7.91285 9.94739 
52 2 56.7418 9.94739 9.94739 
53 2 60.8108 7.91285 7.91285 
54 2 62.8454 9.94739 7.91285 
55 2 62.8454 7.91285 9.94739 
56 2 60.8108 9.94739 9.94739 
57 2 64.8799 7.91285 7.91285 
58 2 66.9145 9.94739 7.91285 
59 2 66.9145 7.91285 9.94739 
60 2 64.8799 9.94739 9.94739 
61 2 68.949 7.91285 7.91285 
62 2 70.9835 9.94739 7.91285 
63 2 70.9835 7.91285 9.94739 
64 2 68.949 9.94739 9.94739 
65 2 73.0181 7.91285 7.91285 
66 2 75.0526 9.94739 7.91285 
67 2 75.0526 7.91285 9.94739 
68 2 73.0181 9.94739 9.94739 
69 2 7.91285 11.9819 7.91285 
70 2 9.94739 14.0165 7.91285 
71 2 9.94739 11.9819 9.94739 
72 2 7.91285 14.0165 9.94739 
73 2 11.9819 11.9819 7.91285 
74 2 14.0165 14.0165 7.91285 
75 2 14.0165 11.9819 9.94739 
76 2 11.9819 14.0165 9.94739 
77 2 16.051 11.9819 7.91285 
78 2 18.0855 14.0165 7.91285 
79 2 18.0855 11.9819 9.94739 
80 2 16.051 14.0165 9.94739 
81 2 20.1201 11.9819 7.91285 
82 2 22.1546 14.0165 7.91285 
83 2 22.1546 11.9819 9.94739 
84 2 20.1201 14.0165 9.94739 
85 2 24.1892 11.9819 7.91285 
86 2 26.2237 14.0165 7.91285 
87 2 26.2237 11.9819 9.94739 
88 2 24.1892 14.0165 9.94739 
89 2 28.2582 11.9819 7.91285 
90 2 30.2928 14.0165 7.91285 
91 2 30.2928 11.9819 9.94739 
92 2 28.2582 14.0165 9.94739 
93 2 32.3273 11.9819 7.91285 
94 2 34.3618 14.0165 7.91285 
95 2 34.3618 11.9819 9.94739 
96 2 32.3273 14.0165 9.94739 
97 2 36.3964 11.9819 7.91285 
98 2 38.4309 14.0165 7.91285 
99 2 38.4309 11.9819 9.94739 
100 2 36.3964 14.0165 9.94739 
101 2 40.4655 11.9819 7.91285 
102 2 42.5 14.0165 7.91285 
103 2 42.5 11.9819 9.94739 
104 2 40.4655 14.0165 9.94739 
105 2 44.5345 11.9819 7.91285 
106 2 46.5691 14.0165 7.91285 
107 2 46.5691 11.9819 9.94739 
108 2 44.5345 14.0165 9.94739 
109 2 48.6036 11.9819 7.91285 
110 2 50.6382 14.0165 7.91285 
111 2 50.6382 11.9819 9.94739 
112 2 48.6036 14.0165 9.94739 
113 2 52.6727 11.9819 7.91285 
114 2 54.7072 14.0165 7.91285 
115 2 54.7072 11.9819 9.94739 
116 2 52.6727 14.0165 9.94739 
117 2 56.7418 11.9819 7.91285 
118 2 58.7763 14.0165 7.91285 
119 2 58.7763 11.9819 9.94739 
120 2 56.7418 14.0165 9.94739 
121 2 60.8108 11.9819 7.91285 
122 2 62.8454 14.0165 7.91285 
123 2 62.8454 11.9819 9.94739 
124 2 60.8108 14.0165 9.94739 
125 2 64.8799 11.9819 7.91285 
126 2 66.9145 14.0165 7.91285 
127 2 66.9145 11.9819 9.94739 
128 2 64.8799 14.0165 9.94739 
129 2 68.949 11.9819 7.91285 
130 2 70.9835 14.0165 7.91285 
131 2 70.9835 11.9819 9.94739 
132 2 68.949 14.0165 9.94739 
133 2 73.0181 11.9819 7.91285 
134 2 75.0526 14.0165 7.91285 
135 2 75.0526 11.9819 9.94739 
136 2 73.0181 14.0165 9.94739 
137 2 7.91285 16.051 7.91285 
138 2 9.94739 18.0855 7.91285 
139 2 9.94739 16.051 9.94739 
140 2 7.91285 18.0855 9.94739 
141 2 11.9819 16.051 7.91285 
142 2 14.0165 18.0855 7.91285 
143 2 14.0165 16.051 9.94739 
144 2 11.9819 18.0855 9.94739 
145 2 16.051 16.051 7.91285 
146 2 18.0855 18.0855 7.91285 
147 2 18.0855 16.051 9.94739 
148 2 16.051 18.0855 9.94739 
149 2 20.1201 16.051 7.91285 
150 2 22.1546 18.0855 7.91285 
151 2 22.1546 16.051 9.94739 
152 2 20.1201 18.0855 9.94739 
153 2 24.1892 16.051 7.91285 
154 2 26.2237 18.0855 7.91285 
155 2 26.2237 16.051 9.94739 
156 2 24.1892 18.0855 9.94739 
157 2 28.2582 16.051 7.91285 
158 2 30.2928 18.0855 7.91285 
159 2 30.2928 16.051 9.94739 
160 2 28.2582 18.0855 9.94739 
161 2 32.3273 16.051 7.91285 
162 2 34.3618 18.0855 7.91285 
163 2 34.3618 16.051 9.94739 
164 2 32.3273 18.0855 9.94739 
165 2 36.3964 16.051 7.91285 
166 2 38.4309 18.0855 7.91285 
167 2 38.4309 16.051 9.94739 
168 2 36.3964 18.0855 9.94739 
169 2 40.4655 16.051 7.91285 
170 2 42.5 18.0855 7.91285 
171 2 42.5 16.051 9.94739 
172 2 40.4655 18.0855 9.94739 
173 2 44.5345 16.051 7.91285 
174 2 46.5691 18.0855 7.91285 
175 2 46.5691 16.051 9.94739 
176 2 44.5345 18.0855 9.94739 
177 2 48.6036 16.051 7.91285 
178 2 50.6382 18.0855 7.91285 
179 2 50.6382 16.051 9.94739 
180 2 48.6036 18.0855 9.94739 
181 2 52.6727 16.051 7.91285 
182 2 54.7072 18.0855 7.91285 
183 2 54.7072 16.051 9.94739 
184 2 52.6727 18.0855 9.94739 
185 2 56.7418 16.051 7.91285 
186 2 58.7763 18.0855 7.91285 
187 2 58.7763 16.051 9.94739 
188 2 56.7418 18.0855 9.94739 
189 2 60.8108 16.051 7.91285 
190 2 62.8454 18.0855 7.91285 
191 2 62.8454 16.051 9.94739 
192 2 60.8108 18.0855 9.94739 
193 2 64.8799 16.051 7.91285 
194 2 66.9145 18.0855 7.91285 
195 2 66.9145 16.051 9.94739 
196 2 64.8799 18.0855 9.94739 
197 2 68.949 16.051 7.91285 
198 2 70.9835 18.0855 7.91285 
199 2 70.9835 16.051 9.94739 
200 2 68.949 18.0855 9.94739 
201 2 73.0181 16.051 7.91285 
202 2 75.0526 18.0855 7.91285 
203 2 75.0526 16.051 9.94739 
204 2 73.0181 18.0855 9.94739 
205 2 7.91285 20.1201 7.91285 
206 2 9.94739 22.1546 7.91285 
207 2 9.94739 20.1201 9.94739 
208 2 7.91285 22.1546 9.94739 
209 2 11.9819 20.1201 7.91285 
210 2 14.0165 22.1546 7.91285 
211 2 14.0165 20.1201 9.94739 
212 2 11.9819 22.1546 9.94739 
213 2 16.051 20.1201 7.91285 
214 2 18.0855 22.1546 7.91285 
215 2 18.0855 20.1201 9.94739 
216 2 16.051 22.1546 9.94739 
217 2 20.1201 20.1201 7.91285 
218 2 22.1546 22.1546 7.91285 
219 2 22.1546 20.1201 9.94739 
220 2 20.1201 22.1546 9.94739 
221 2 24.1892 20.1201 7.91285 
222 2 26.2237 22.1546 7.91285 
223 2 26.2237 20.1201 9.94739 
224 2 24.1892 22.1546 9.94739 
225 2 28.2582 20.1201 7.91285 
226 2 30.2928 22.1546 7.91285 
227 2 30.2928 20.1201 9.94739 
228 2 28.2582 22.1546 9.94739 
229 2 32.3273 20.1201 7.91285 
230 2 34.3618 22.1546 7.91285 
231 2 34.3618 20.1201 9.94739 
232 2 32.3273 22.1546 9.94739 
233 2 36.3964 20.1201 7.91285 
234 2 38.4309 22.1546 7.91285 
235 2 38.4309 20.1201 9.94739 
236 2 36.3964 22.1546 9.94739 
237 2 40.4655 20.1201 7.91285 
238 2 42.5 22.1546 7.91285 
239 2 42.5 20.1201 9.94739 
240 2 40.4655 22.1546 9.94739 
241 2 44.5345 20.1201 7.91285 
242 2 46.5691 22.1546 7.91285 
243 2 46.5691 20.1201 9.94739 
244 2 44.5345 22.1546 9.94739 
245 2 48.6036 20.1201 7.91285 
246 2 50.6382 22.1546 7.91285 
247 2 50.6382 20.1201 9.94739 
248 2 48.6036 22.1546 9.94739 
249 2 52.6727 20.1201 7.91285 
250 2 54.7072 22.1546 7.91285 
251 2 54.7072 20.1201 9.94739 
252 2 52.6727 22.1546 9.94739 
253 2 56.7418 20.1201 7.91285 
254 2 58.7763 22.1546 7.91285 
255 2 58.7763 20.1201 9.94739 
256 2 56.7418 22.1546 9.94739 
257 2 60.8108 20.1201 7.91285 
258 2 62.8454 22.1546 7.91285 
259 2 62.8454 20.1201 9.94739 
260 2 60.8108 22.1546 9.94739 
261 2 64.8799 20.1201 7.91285 
262 2 66.9145 22.1546 7.91285 
263 2 66.9145 20.1201 9.94739 
264 2 64.8799 22.1546 9.94739 
265 2 68.949 20.1201 7.91285 
266 2 70.9835 22.1546 7.91285 
267 2 70.9835 20.1201 9.94739 
268 2 68.949 22.1546 9.94739 
269 2 73.0181 20.1201 7.91285 
270 2 75.0526 22.1546 7.91285 
271 2 75.0526 20.1201 9.94739 
272 2 73.0181 22.1546 9.94739 
273 2 7.91285 24.1892 7.91285 
274 2 9.94739 26.2237 7.91285 
275 2 9.94739 24.1892 9.94739 
276 2 7.91285 26.2237 9.94739 
277 2 11.9819 24.1892 7.91285 
278 2 14.0165 26.2237 7.91285 
279 2 14.0165 24.1892 9.94739 
280 2 11.9819 26.2237 9.94739 
281 2 16.051 24.1892 7.91285 
282 2 18.0855 26.2237 7.91285 
283 2 18.0855 24.1892 9.94739 
284 2 16.051 26.2237 9.94739 
285 2 20.1201 24.1892 7.91285 
286 2 22.1546 26.2237 7.91285 
287 2 22.1546 24.1892 9.94739 
288 2 20.1201 26.2237 9.94739 
289 2 24.1892 24.1892 7.91285 
290 2 26.2237 26.2237 7.91285 
291 2 26.2237 24.1892 9.94739 
292 2 24.1892 26.2237 9.94739 
293 2 28.2582 24.1892 7.91285 
294 2 30.2928 26.2237 7.91285 
295 2 30.2928 24.1892 9.94739 
296 2 28.2582 26.2237 9.94739 
297 2 32.3273 24.1892 7.91285 
298 2 34.3618 26.2237 7.91285 
299 2 34.3618 24.1892 9.94739 
300 2 32.3273 26.2237 9.94739 
301 2 36.3964 24.1892 7.91285 
302 2 38.4309 26.2237 7.91285 
303 2 38.4309 24.1892 9.94739 
304 2 36.3964 26.2237 9.94739 
305 2 40.4655 24.1892 7.91285 
306 2 42.5 26.2237 7.91285 
307 2 42.5 24.1892 9.94739 
308 2 40.4655 26.2237 9.94739 
309 2 44.5345 24.1892 7.91285 
310 2 46.5691 26.2237 7.91285 
311 2 46.5691 24.1892 9.94739 
312 2 44.5345 26.2237 9.94739 
313 2 48.6036 24.1892 7.91285 
314 2 50.6382 26.2237 7.91285 
315 2 50.6382 24.1892 9.94739 
316 2 48.6036 26.2237 9.94739 
317 2 52.6727 24.1892 7.91285 
318 2 54.7072 26.2237 7.91285 
319 2 54.7072 24.1892 9.94739 
320 2 52.6727 26.2237 9.94739 
321 2 56.7418 24.1892 7.91285 
322 2 58.7763 26.2237 7.91285 
323 2 58.7763 24.1892 9.94739 
324 2 56.7418 26.2237 9.94739 
325 2 60.8108 24.1892 7.91285 
326 2 62.8454 26.2237 7.91285 
327 2 62.8454 24.1892 9.94739 
328 2 60.8108 26.2237 9.94739 
329 2 64.8799 24.1892 7.91285 
330 2 66.9145 26.2237 7.91285 
331 2 66.9145 24.1892 9.94739 
332 2 64.8799 26.2237 9.94739 
333 2 68.949 24.1892 7.91285 
334 2 70.9835 26.2237 7.91285 
335 2 70.9835 24.1892 9.94739 
336 2 68.949 26.2237 9.94739 
337 2 73.0181 24.1892 7.91285 
338 2 75.0526 26.2237 7.91285 
339 2 75.0526 24.1892 9.94739 
340 2 73.0181 26.2237 9.94739 
341 2 7.91285 28.2582 7.91285 
342 2 9.94739 30.2928 7.91285 
343 2 9.94739 28.2582 9.94739 
344 2 7.91285 30.2928 9.94739 
345 2 11.9819 28.2582 7.91285 
346 2 14.0165 30.2928 7.91285 
347 2 14.0165 28.2582 9.94739 
348 2 11.9819 30.2928 9.94739 
349 2 16.051 28.2582 7.91285 
350 2 18.0855 30.2928 7.91285 
351 2 18.0855 28.2582 9.94739 
352 2 16.051 30.2928 9.94739 
353 2 20.1201 28.2582 7.91285 
354 2 22.1546 30.2928 7.91285 
355 2 22.1546 28.2582 9.94739 
356 2 20.1201 30.2928 9.94739 
357 2 24.1892 28.2582 7.91285 
358 2 26.2237 30.2928 7.91285 
359 2 26.2237 28.2582 9.94739 
360 2 24.1892 30.2928 9.94739 
361 2 28.2582 28.2582 7.91285 
362 2 30.2928 30.2928 7.91285 
363 2 30.2928 28.2582 9.94739 
364 2 28.2582 30.2928 9.94739 
365 2 32.3273 28.2582 7.91285 
366 2 34.3618 30.2928 7.91285 
367 2 34.3618 28.2582 9.94739 
368 2 32.3273 30.2928 9.94739 
369 2 36.3964 28.2582 7.91285 
370 2 38.4309 30.2928 7.91285 
371 2 38.4309 28.2582 9.94739 
372 2 36.3964 30.2928 9.94739 
373 2 40.4655 28.2582 7.91285 
374 2 42.5 30.2928 7.91285 
375 2 42.5 28.2582 9.94739 
376 2 40.4655 30.2928 9.94739 
377 2 44.5345 28.2582 7.91285 
378 2 46.5691 30.2928 7.91285 
379 2 46.5691 28.2582 9.94739 
380 2 44.5345 30.2928 9.94739 
381 2 48.6036 28.2582 7.91285 
382 2 50.6382 30.2928 7.91285 
383 2 50.6382 28.2582 9.94739 
384 2 48.6036 30.2928 9.94739 
385 2 52.6727 28.2582 7.91285 
386 2 54.7072 30.2928 7.91285 
387 2 54.7072 28.2582 9.94739 
388 2 52.6727 30.2928 9.94739 
389 2 56.7418 28.2582 7.91285 
390 2 58.7763 30.2928 7.91285 
391 2 58.7763 28.2582 9.94739 
392 2 56.7418 30.2928 9.94739 
393 2 60.8108 28.2582 7.91285 
394 2 62.8454 30.2928 7.91285 
395 2 62.8454 28.2582 9.94739 
396 2 60.8108 30.2928 9.94739 
397 2 64.8799 28.2582 7.91285 
398 2 66.9145 30.2928 7.91285 
399 2 66.9145 28.2582 9.94739 
400 2 64.8799 30.2928 9.94739 
401 2 68.949 28.2582 7.91285 
402 2 70.9835 30.2928 7.91285 
403 2 70.9835 28.2582 9.94739 
404 2 68.949 30.2928 9.94739 
405 2 73.0181 28.2582 7.91285 
406 2 75.0526 30.2928 7.91285 
407 2 75.0526 28.2582 9.94739 
408 2 73.0181 30.2928 9.94739 
409 2 7.91285 32.3273 7.91285 
410 2 9.94739 34.3618 7.91285 
411 2 9.94739 32.3273 9.94739 
412 2 7.91285 34.3618 9.94739 
413 2 11.9819 32.3273 7.91285 
414 2 14.0165 34.3618 7.91285 
415 2 14.0165 32.3273 9.94739 
416 2 11.9819 34.3618 9.94739 
417 2 16.051 32.3273 7.91285 
418 2 18.0855 34.3618 7.91285 
419 2 18.0855 32.3273 9.94739 
420 2 16.051 34.3618 9.94739 
421 2 20.1201 32.3273 7.91285 
422 2 22.1546 34.3618 7.91285 
423 2 22.1546 32.3273 9.94739 
424 2 20.1201 34.3618 9.94739 
425 2 24.1892 32.3273 7.91285 
426 2 26.2237 34.3618 7.91285 
427 2 26.2237 32.3273 9.94739 
428 2 24.1892 34.3618 9.94739 
429 2 28.2582 32.3273 7.91285 
430 2 30.2928 34.3618 7.91285 
431 2 30.2928 32.3273 9.94739 
432 2 28.2582 34.3618 9.94739 
433 2 32.3273 32.3273 7.91285 
434 2 34.3618 34.3618 7.91285 
435 2 34.3618 32.3273 9.94739 
436 2 32.3273 34.3618 9.94739 
437 2 36.3964 32.3273 7.91285 
438 2 38.4309 34.3618 7.91285 
439 2 38.4309 32.3273 9.94739 
440 2 36.3964 34.3618 9.94739 
441 2 40.4655 32.3273 7.91285 
442 2 42.5 34.3618 7.91285 
443 2 42.5 32.3273 9.94739 
444 2 40.4655 34.3618 9.94739 
445 2 44.5345 32.3273 7.91285 
446 2 46.5691 34.3618 7.91285 
447 2 46.5691 32.3273 9.94739 
448 2 44.5345 34.3618 9.94739 
449 2 48.6036 32.3273 7.91285 
450 2 50.6382 34.3618 7.91285 
451 2 50.6382 32.3273 9.94739 
452 2 48.6036 34.3618 9.94739 
453 2 52.6727 32.3273 7.91285 
454 2 54.7072 34.3618 7.91285 
455 2 54.7072 32.3273 9.94739 
456 2 52.6727 34.3618 9.94739 
457 2 56.7418 32.3273 7.91285 
458 2 58.7763 34.3618 7.91285 
459 2 58.7763 32.3273 9.94739 
460 2 56.7418 34.3618 9.94739 
461 2 60.8108 32.3273 7.91285 
462 2 62.8454 34.3618 7.91285 
463 2 62.8454 32.3273 9.94739 
464 2 60.8108 34.3618 9.94739 
465 2 64.8799 32.3273 7.91285 
466 2 66.9145 34.3618 7.91285 
467 2 66.9145 32.3273 9.94739 
468 2 64.8799 34.3618 9.94739 
469 2 68.949 32.3273 7.91285 
470 2 70.9835 34.3618 7.91285 
471 2 70.9835 32.3273 9.94739 
472 2 68.949 34.3618 9.94739 
473 2 73.0181 32.3273 7.91285 
474 2 75.0526 34.3618 7.91285 
475 2 75.0526 32.3273 9.94739 
476 2 73.0181 34.3618 9.94739 
477 2 7.91285 36.3964 7.91285 
478 2 9.94739 38.4309 7.91285 
479 2 9.94739 36.3964 9.94739 
480 2 7.91285 38.4309 9.94739 
481 2 11.9819 36.3964 7.91285 
482 2 14.0165 38.4309 7.91285 
483 2 14.0165 36.3964 9.94739 
484 2 11.9819 38.4309 9.94739 
485 2 16.051 36.3964 7.91285 
486 2 18.0855 38.4309 7.91285 
487 2 18.0855 36.3964 9.94739 
488 2 16.051 38.4309 9.94739 
489 2 20.1201 36.3964 7.91285 
490 2 22.1546 38.4309 7.91285 
491 2 22.1546 36.3964 9.94739 
492 2 20.1201 38.4309 9.94739 
493 2 24.1892 36.3964 7.91285 
494 2 26.2237 38.4309 7.91285 
495 2 26.2237 36.3964 9.94739 
496 2 24.1892 38.4309 9.94739 
497 2 28.2582 36.3964 7.91285 
498 2 30.2928 38.4309 7.91285 
499 2 30.2928 36.3964 9.94739 
500 2 28.2582 38.4309 9.94739 
501 2 32.3273 36.3964 7.91285 
502 2 34.3618 38.4309 7.91285 
503 2 34.3618 36.3964 9.94739 
504 2 32.3273 38.4309 9.94739 
505 2 36.3964 36.3964 7.91285 
506 2 38.4309 38.4309 7.91285 
507 2 38.4309 36.3964 9.94739 
508 2 36.3964 38.4309 9.94739 
509 2 40.4655 36.3964 7.91285 
510 2 42.5 38.4309 7.91285 
511 2 42.5 36.3964 9.94739 
512 2 40.4655 38.4309 9.94739 
513 2 44.5345 36.3964 7.91285 
514 2 46.5691 38.4309 7.91285 
515 2 46.5691 36.3964 9.94739 
516 2 44.5345 38.4309 9.94739 
517 2 48.6036 36.3964 7.91285 
518 2 50.6382 38.4309 7.91285 
519 2 50.6382 36.3964 9.94739 
520 2 48.6036 38.4309 9.94739 
521 2 52.6727 36.3964 7.91285 
522 2 54.7072 38.4309 7.91285 
523 2 54.7072 36.3964 9.94739 
524 2 52.6727 38.4309 9.94739 
525 2 56.7418 36.3964 7.91285 
526 2 58.7763 38.4309 7.91285 
527 2 58.7763 36.3964 9.94739 
528 2 56.7418 38.4309 9.94739 
529 2 60.8108 36.3964 7.91285 
530 2 62.8454 38.4309 7.91285 
531 2 62.8454 36.3964 9.94739 
532 2 60.8108 38.4309 9.94739 
533 2 64.8799 36.3964 7.91285 
534 2 66.9145 38.4309 7.91285 
535 2 66.9145 36.3964 9.94739 
536 2 64.8799 38.4309 9.94739 
537 2 68.949 36.3964 7.91285 
538 2 70.9835 38.4309 7.91285 
539 2 70.9835 36.3964 9.94739 
540 2 68.949 38.4309 9.94739 
541 2 73.0181 36.3964 7.91285 
542 2 75.0526 38.4309 7.91285 
543 2 75.0526 36.3964 9.94739 
544 2 73.0181 38.4309 9.94739 
545 2 7.91285 40.4655 7.91285 
546 2 9.94739 42.5 7.91285 
547 2 9.94739 40.4655 9.94739 
548 2 7.91285 42.5 9.94739 
549 2 11.9819 40.4655 7.91285 
550 2 14.0165 42.5 7.91285 
551 2 14.0165 40.4655 9.94739 
552 2 11.9819 42.5 9.94739 
553 2 16.051 40.4655 7.91285 
554 2 18.0855 42.5 7.91285 
555 2 18.0855 40.4655 9.94739 
556 2 16.051 42.5 9.94739 
557 2 20.1201 40.4655 7.91285 
558 2 22.1546 42.5 7.91285 
559 2 22.1546 40.4655 9.94739 
560 2 20.1201 42.5 9.94739 
561 2 24.1892 40.4655 7.91285 
562 2 26.2237 42.5 7.91285 
563 2 26.2237 40.4655 9.94739 
564 2 24.1892 42.5 9.94739 
565 2 28.2582 40.4655 7.91285 
566 2 30.2928 42.5 7.91285 
567 2 30.2928 40.4655 9.94739 
568 2 28.2582 42.5 9.94739 
569 2 32.3273 40.4655 7.91285 
570 2 34.3618 42.5 7.91285 
571 2 34.3618 40.4655 9.94739 
572 2 32.3273 42.5 9.94739 
573 2 36.3964 40.4655 7.91285 
574 2 38.4309 42.5 7.91285 
575 2 38.4309 40.4655 9.94739 
576 2 36.3964 42.5 9.94739 
577 2 40.4655 40.4655 7.91285 
578 2 42.5 42.5 7.91285 
579 2 42.5 40.4655 9.94739 
580 2 40.4655 42.5 9.94739 
581 2 44.5345 40.4655 7.91285 
582 2 46.5691 42.5 7.91285 
583 2 46.5691 40.4655 9.94739 
584 2 44.5345 42.5 9.94739 
585 2 48.6036 40.4655 7.91285 
586 2 50.6382 42.5 7.91285 
587 2 50.6382 40.4655 9.94739 
588 2 48.6036 42.5 9.94739 
589 2 52.6727 40.4655 7.91285 
590 2 54.7072 42.5 7.91285 
591 2 54.7072 40.4655 9.94739 
592 2 52.6727 42.5 9.94739 
593 2 56.7418 40.4655 7.91285 
594 2 58.7763 42.5 7.91285 
595 2 58.7763 40.4655 9.94739 
596 2 56.7418 42.5 9.94739 
597 2 60.8108 40.4655 7.91285 
598 2 62.8454 42.5 7.91285 
599 2 62.8454 40.4655 9.94739 
600 2 60.8108 42.5 9.94739 
601 2 64.8799 40.4655 7.91285 
602 2 66.9145 42.5 7.91285 
603 2 66.9145 40.4655 9.94739 
604 2 64.8799 42.5 9.94739 
605 2 68.949 40.4655 7.91285 
606 2 70.9835 42.5 7.91285 
607 2 70.9835 40.4655 9.94739 
608 2 68.949 42.5 9.94739 
609 2 73.0181 40.4655 7.91285 
610 2 75.0526 42.5 7.91285 
611 2 75.0526 40.4655 9.94739 
612 2 73.0181 42.5 9.94739 
613 2 7.91285 44.5345 7.91285 
614 2 9.94739 46.5691 7.91285 
615 2 9.94739 44.5345 9.94739 
616 2 7.91285 46.5691 9.94739 
617 2 11.9819 44.5345 7.91285 
618 2 14.0165 46.5691 7.91285 
619 2 14.0165 44.5345 9.94739 
620 2 11.9819 46.5691 9.94739 
621 2 16.051 44.5345 7.91285 
622 2 18.0855 46.5691 7.91285 
623 2 18.0855 44.5345 9.94739 
624 2 16.051 46.5691 9.94739 
625 2 20.1201 44.5345 7.91285 
626 2 22.1546 46.5691 7.91285 
627 2 22.1546 44.5345 9.94739 
628 2 20.1201 46.5691 9.94739 
629 2 24.1892 44.5345 7.91285 
630 2 26.2237 46.5691 7.91285 
631 2 26.2237 44.5345 9.94739 
632 2 24.1892 46.5691 9.94739 
633 2 28.2582 44.5345 7.91285 
634 2 30.2928 46.5691 7.91285 
635 2 30.2928 44.5345 9.94739 
636 2 28.2582 46.5691 9.94739 
637 2 32.3273 44.5345 7.91285 
638 2 34.3618 46.5691 7.91285 
639 2 34.3618 44.5345 9.94739 
640 2 32.3273 46.5691 9.94739 
641 2 36.3964 44.5345 7.91285 
642 2 38.4309 46.5691 7.91285 
643 2 38.4309 44.5345 9.94739 
644 2 36.3964 46.5691 9.94739 
645 2 40.4655 44.5345 7.91285 
646 2 42.5 46.5691 7.91285 
647 2 42.5 44.5345 9.94739 
648 2 40.4655 46.5691 9.94739 
649 2 44.5345 44.5345 7.91285 
650 2 46.5691 46.5691 7.91285 
651 2 46.5691 44.5345 9.94739 
652 2 44.5345 46.5691 9.94739 
653 2 48.6036 44.5345 7.91285 
654 2 50.6382 46.5691 7.91285 
655 2 50.6382 44.5345 9.94739 
656 2 48.6036 46.5691 9.94739 
657 2 52.6727 44.5345 7.91285 
658 2 54.7072 46.5691 7.91285 
659 2 54.7072 44.5345 9.94739 
660 2 52.6727 46.5691 9.94739 
661 2 56.7418 44.5345 7.91285 
662 2 58.7763 46.5691 7.91285 
663 2 58.7763 44.5345 9.94739 
664 2 56.7418 46.5691 9.94739 
665 2 60.8108 44.5345 7.91285 
666 2 62.8454 46.5691 7.91285 
667 2 62.8454 44.5345 9.94739 
668 2 60.8108 46.5691 9.94739 
669 2 64.8799 44.5345 7.91285 
670 2 66.9145 46.5691 7.91285 
671 2 66.9145 44.5345 9.94739 
672 2 64.8799 46.5691 9.94739 
673 2 68.949 44.5345 7.91285 
674 2 70.9835 46.5691 7.91285 
675 2 70.9835 44.5345 9.94739 
676 2 68.949 46.5691 9.94739 
677 2 73.0181 44.5345 7.91285 
678 2 75.0526 46.5691 7.91285 
679 2 75.0526 44.5345 9.94739 
680 2 73.0181 46.5691 9.94739 
681 2 7.91285 48.6036 7.91285 
682 2 9.94739 50.6382 7.91285 
683 2 9.94739 48.6036 9.94739 
684 2 7.91285 50.6382 9.94739 
685 2 11.9819 48.6036 7.91285 
686 2 14.0165 50.6382 7.91285 
687 2 14.0165 48.6036 9.94739 
688 2 11.9819 50.6382 9.94739 
689 2 16.051 48.6036 7.91285 
690 2 18.0855 50.6382 7.91285 
691 2 18.0855 48.6036 9.94739 
692 2 16.051 50.6382 9.94739 
693 2 20.1201 48.6036 7.91285 
694 2 22.1546 50.6382 7.91285 
695 2 22.1546 48.6036 9.94739 
696 2 20.1201 50.6382 9.94739 
697 2 24.1892 48.6036 7.91285 
698 2 26.2237 50.6382 7.91285 
699 2 26.2237 48.6036 9.94739 
700 2 24.1892 50.6382 9.94739 
701 2 28.2582 48.6036 7.91285 
702 2 30.2928 50.6382 7.91285 
703 2 30.2928 48.6036 9.94739 
704 2 28.2582 50.6382 9.94739 
705 2 32.3273 48.6036 7.91285 
706 2 34.3618 50.6382 7.91285 
707 2 34.3618 48.6036 9.94739 
708 2 32.3273 50.6382 9.94739 
709 2 36.3964 48.6036 7.91285 
710 2 38.4309 50.6382 7.91285 
711 2 38.4309 48.6036 9.94739 
712 2 36.3964 50.6382 9.94739 
713 2 40.4655 48.6036 7.91285 
714 2 42.5 50.6382 7.91285 
715 2 42.5 48.6036 9.94739 
716 2 40.4655 50.6382 9.94739 
717 2 44.5345 48.6036 7.91285 
718 2 46.5691 50.6382 7.91285 
719 2 46.5691 48.6036 9.94739 
720 2 44.5345 50.6382 9.94739 
721 2 48.6036 48.6036 7.91285 
722 2 50.6382 50.6382 7.91285 
723 2 50.6382 48.6036 9.94739 
724 2 48.6036 50.6382 9.94739 
725 2 52.6727 48.6036 7.91285 
726 2 54.7072 50.6382 7.91285 
727 2 54.7072 48.6036 9.94739 
728 2 52.6727 50.6382 9.94739 
729 2 56.7418 48.6036 7.91285 
730 2 58.7763 50.6382 7.91285 
731 2 58.7763 48.6036 9.94739 
732 2 56.7418 50.6382 9.94739 
733 2 60.8108 48.6036 7.91285 
734 2 62.8454 50.6382 7.91285 
735 2 62.8454 48.6036 9.94739 
736 2 60.8108 50.6382 9.94739 
737 2 64.8799 48.6036 7.91285 
738 2 66.9145 50.6382 7.91285 
739 2 66.9145 48.6036 9.94739 
740 2 64.8799 50.6382 9.94739 
741 2 68.949 48.6036 7.91285 
742 2 70.9835 50.6382 7.91285 
743 2 70.9835 48.6036 9.94739 
744 2 68.949 50.6382 9.94739 
745 2 73.0181 48.6036 7.91285 
746 2 75.0526 50.6382 7.91285 
747 2 75.0526 48.6036 9.94739 
748 2 73.0181 50.6382 9.94739 
749 2 7.91285 52.6727 7.91285 
750 2 9.94739 54.7072 7.91285 
751 2 9.94739 52.6727 9.94739 
752 2 7.91285 54.7072 9.94739 
753 2 11.9819 52.6727 7.91285 
754 2 14.0165 54.7072 7.91285 
755 2 14.0165 52.6727 9.94739 
756 2 11.9819 54.7072 9.94739 
757 2 16.051 52.6727 7.91285 
758 2 18.0855 54.7072 7.91285 
759 2 18.0855 52.6727 9.94739 
760 2 16.051 54.7072 9.94739 
761 2 20.1201 52.6727 7.91285 
762 2 22.1546 54.7072 7.91285 
763 2 22.1546 52.6727 9.94739 
764 2 20.1201 54.7072 9.94739 
765 2 24.1892 52.6727 7.91285 
766 2 26.2237 54.7072 7.91285 
767 2 26.2237 52.6727 9.94739 
768 2 24.1892 54.7072 9.94739 
769 2 28.2582 52.6727 7.91285 
770 2 30.2928 54.7072 7.91285 
771 2 30.2928 52.6727 9.94739 
772 2 28.2582 54.7072 9.94739 
773 2 32.3273 52.6727 7.91285 
774 2 34.3618 54.7072 7.91285 
775 2 34.3618 52.6727 9.94739 
776 2 32.3273 54.7072 9.94739 
777 2 36.3964 52.6727 7.91285 
778 2 38.4309 54.7072 7.91285 
779 2 38.4309 52.6727 9.94739 
780 2 36.3964 54.7072 9.94739 
781 2 40.4655 52.6727 7.91285 
782 2 42.5 54.7072 7.91285 
783 2 42.5 52.6727 9.94739 
784 2 40.4655 54.7072 9.94739 
785 2 44.5345 52.6727 7.91285 
786 2 46.5691 54.7072 7.91285 
787 2 46.5691 52.6727 9.94739 
788 2 44.5345 54.7072 9.94739 
789 2 48.6036 52.6727 7.91285 
790 2 50.6382 54.7072 7.91285 
791 2 50.6382 52.6727 9.94739 
792 2 48.6036 54.7072 9.94739 
793 2 52.6727 52.6727 7.91285 
794 2 54.7072 54.7072 7.91285 
795 2 54.7072 52.6727 9.94739 
796 2 52.6727 54.7072 9.94739 
797 2 56.7418 52.6727 7.91285 
798 2 58.7763 54.7072 7.91285 
799 2 58.7763 52.6727 9.94739 
800 2 56.7418 54.7072 9.94739 
801 2 60.8108 52.6727 7.91285 
802 2 62.8454 54.7072 7.91285 
803 2 62.8454 52.6727 9.94739 
804 2 60.8108 54.7072 9.94739 
805 2 64.8799 52.6727 7.91285 
806 2 66.9145 54.7072 7.91285 
807 2 66.9145 52.6727 9.94739 
808 2 64.8799 54.7072 9.94739 
809 2 68.949 52.6727 7.91285 
810 2 70.9835 54.7072 7.91285 
811 2 70.9835 52.6727 9.94739 
812 2 68.949 54.7072 9.94739 
813 2 73.0181 52.6727 7.91285 
814 2 75.0526 54.7072 7.91285 
815 2 75.0526 52.6727 9.94739 
816 2 73.0181 54.7072 9.94739 
817 2 7.91285 56.7418 7.91285 
818 2 9.94739 58.7763 7.91285 
819 2 9.94739 56.7418 9.94739 
820 2 7.91285 58.7763 9.94739 
821 2 11.9819 56.7418 7.91285 
822 2 14.0165 58.7763 7.91285 
823 2 14.0165 56.7418 9.94739 
824 2 11.9819 58.7763 9.94739 
825 2 16.051 56.7418 7.91285 
826 2 18.0855 58.7763 7.91285 
827 2 18.0855 56.7418 9.94739 
828 2 16.051 58.7763 9.94739 
829 2 20.1201 56.7418 7.91285 
830 2 22.1546 58.7763 7.91285 
831 2 22.1546 56.7418 9.94739 
832 2 20.1201 58.7763 9.94739 
833 2 24.1892 56.7418 7.91285 
834 2 26.2237 58.7763 7.91285 
835 2 26.2237 56.7418 9.94739 
836 2 24.1892 58.7763 9.94739 
837 2 28.2582 56.7418 7.91285 
838 2 30.2928 58.7763 7.91285 
839 2 30.2928 56.7418 9.94739 
840 2 28.2582 58.7763 9.94739 
841 2 32.3273 56.7418 7.91285 
842 2 34.3618 58.7763 7.91285 
843 2 34.3618 56.7418 9.94739 
844 2 32.3273 58.7763 9.94739 
845 2 36.3964 56.7418 7.91285 
846 2 38.4309 58.7763 7.91285 
847 2 38.4309 56.7418 9.94739 
848 2 36.3964 58.7763 9.94739 
849 2 40.4655 56.7418 7.91285 
850 2 42.5 58.7763 7.91285 
851 2 42.5 56.7418 9.94739 
852 2 40.4655 58.7763 9.94739 
853 2 44.5345 56.7418 7.91285 
854 2 46.5691 58.7763 7.91285 
855 2 46.5691 56.7418 9.94739 
856 2 44.5345 58.7763 9.94739 
857 2 48.6036 56.7418 7.91285 
858 2 50.6382 58.7763 7.91285 
859 2 50.6382 56.7418 9.94739 
860 2 48.6036 58.7763 9.94739 
861 2 52.6727 56.7418 7.91285 
862 2 54.7072 58.7763 7.91285 
863 2 54.7072 56.7418 9.94739 
864 2 52.6727 58.7763 9.94739 
865 2 56.7418 56.7418 7.91285 
866 2 58.7763 58.7763 7.91285 
867 2 58.7763 56.7418 9.94739 
868 2 56.7418 58.7763 9.94739 
869 2 60.8108 56.7418 7.91285 
870 2 62.8454 58.7763 7.91285 
871 2 62.8454 56.7418 9.94739 
872 2 60.8108 58.7763 9.94739 
873 2 64.8799 56.7418 7.91285 
874 2 66.9145 58.7763 7.91285 
875 2 66.9145 56.7418 9.94739 
876 2 64.8799 58.7763 9.94739 
877 2 68.949 56.7418 7.91285 
878 2 70.9835 58.7763 7.91285 
879 2 70.9835 56.7418 9.94739 
880 2 68.949 58.7763 9.94739 
881 2 73.0181 56.7418 7.91285 
882 2 75.0526 58.7763 7.91285 
883 2 75.0526 56.7418 9.94739 
884 2 73.0181 58.7763 9.94739 
885 2 7.91285 60.8108 7.91285 
886 2 9.94739 62.8454 7.91285 
887 2 9.94739 60.8108 9.94739 
888 2 7.91285 62.8454 9.94739 
889 2 11.9819 60.8108 7.91285 
890 2 14.0165 62.8454 7.91285 
891 2 14.0165 60.8108 9.94739 
892 2 11.9819 62.8454 9.94739 
893 2 16.051 60.8108 7.91285 
894 2 18.0855 62.8454 7.91285 
895 2 18.0855 60.8108 9.94739 
896 2 16.051 62.8454 9.94739 
897 2 20.1201 60.8108 7.91285 
898 2 22.1546 62.8454 7.91285 
899 2 22.1546 60.8108 9.94739 
900 2 20.1201 62.8454 9.94739 
901 2 24.1892 60.8108 7.91285 
902 2 26.2237 62.8454 7.91285 
903 2 26.2237 60.8108 9.94739 
904 2 24.1892 62.8454 9.94739 
905 2 28.2582 60.8108 7.91285 
906 2 30.2928 62.8454 7.91285 
907 2 30.2928 60.8108 9.94739 
908 2 28.2582 62.8454 9.94739 
909 2 32.3273 60.8108 7.91285 
910 2 34.3618 62.8454 7.91285 
911 2 34.3618 60.8108 9.94739 
912 2 32.3273 62.8454 9.94739 
913 2 36.3964 60.8108 7.91285 
914 2 38.4309 62.8454 7.91285 
915 2 38.4309 60.8108 9.94739 
916 2 36.3964 62.8454 9.94739 
917 2 40.4655 60.8108 7.91285 
918 2 42.5 62.8454 7.91285 
919 2 42.5 60.8108 9.94739 
920 2 40.4655 62.8454 9.94739 
921 2 44.5345 60.8108 7.91285 
922 2 46.5691 62.8454 7.91285 
923 2 46.5691 60.8108 9.94739 
924 2 44.5345 62.8454 9.94739 
925 2 48.6036 60.8108 7.91285 
926 2 50.6382 62.8454 7.91285 
927 2 50.6382 60.8108 9.94739 
928 2 48.6036 62.8454 9.94739 
929 2 52.6727 60.8108 7.91285 
930 2 54.7072 62.8454 7.91285 
931 2 54.7072 60.8108 9.94739 
932 2 52.6727 62.8454 9.94739 
933 2 56.7418 60.8108 7.91285 
934 2 58.7763 62.8454 7.91285 
935 2 58.7763 60.8108 9.94739 
936 2 56.7418 62.8454 9.94739 
937 2 60.8108 60.8108 7.91285 
938 2 62.8454 62.8454 7.91285 
939 2 62.8454 60.8108 9.94739 
940 2 60.8108 62.8454 9.94739 
941 2 64.8799 60.8108 7.91285 
942 2 66.9145 62.8454 7.91285 
943 2 66.9145 60.8108 9.94739 
944 2 64.8799 62.8454 9.94739 
945 2 68.949 60.8108 7.91285 
946 2 70.9835 62.8454 7.91285 
947 2 70.9835 60.8108 9.94739 
948 2 68.949 62.8454 9.94739 
949 2 73.0181 60.8108 7.91285 
950 2 75.0526 62.8454 7.91285 
951 2 75.0526 60.8108 9.94739 
952 2 73.0181 62.8454 9.94739 
953 2 7.91285 64.8799 7.91285 
954 2 9.94739 66.9145 7.91285 
955 2 9.94739 64.8799 9.94739 
956 2 7.91285 66.9145 9.94739 
957 2 11.9819 64.8799 7.91285 
958 2 14.0165 66.9145 7.91285 
959 2 14.0165 64.8799 9.94739 
960 2 11.9819 66.9145 9.94739 
961 2 16.051 64.8799 7.91285 
962 2 18.0855 66.9145 7.91285 
963 2 18.0855 64.8799 9.94739 
964 2 16.051 66.9145 9.94739 
965 2 20.1201 64.8799 7.91285 
966 2 22.1546 66.9145 7.91285 
967 2 22.1546 64.8799 9.94739 
968 2 20.1201 66.9145 9.94739 
969 2 24.1892 64.8799 7.91285 
970 2 26.2237 66.9145 7.91285 
971 2 26.2237 64.8799 9.94739 
972 2 24.1892 66.9145 9.94739 