ITEM: TIMESTEP
59
ITEM: NUMBER OF ATOMS
9826
ITEM: BOX BOUNDS pp pp pp
1.2056504015834816e+01 7.2943495984164883e+01
1.2056504015834816e+01 7.2943495984164883e+01
1.2056504015834816e+01 7.2943495984164883e+01
ITEM: ATOMS id type xu yu zu 
1 1 12.0565 12.0565 12.0565 
2 1 13.8473 13.8473 13.8473 
3 1 15.6381 12.0565 12.0565 
4 1 17.4289 13.8473 13.8473 
5 1 19.2197 12.0565 12.0565 
6 1 21.0105 13.8473 13.8473 
7 1 22.8013 12.0565 12.0565 
8 1 24.5921 13.8473 13.8473 
9 1 26.3829 12.0565 12.0565 
10 1 28.1736 13.8473 13.8473 
11 1 29.9644 12.0565 12.0565 
12 1 31.7552 13.8473 13.8473 
13 1 33.546 12.0565 12.0565 
14 1 35.3368 13.8473 13.8473 
15 1 37.1276 12.0565 12.0565 
16 1 38.9184 13.8473 13.8473 
17 1 40.7092 12.0565 12.0565 
18 1 42.5 13.8473 13.8473 
19 1 44.2908 12.0565 12.0565 
20 1 46.0816 13.8473 13.8473 
21 1 47.8724 12.0565 12.0565 
22 1 49.6632 13.8473 13.8473 
23 1 51.454 12.0565 12.0565 
24 1 53.2448 13.8473 13.8473 
25 1 55.0356 12.0565 12.0565 
26 1 56.8264 13.8473 13.8473 
27 1 58.6171 12.0565 12.0565 
28 1 60.4079 13.8473 13.8473 
29 1 62.1987 12.0565 12.0565 
30 1 63.9895 13.8473 13.8473 
31 1 65.7803 12.0565 12.0565 
32 1 67.5711 13.8473 13.8473 
33 1 69.3619 12.0565 12.0565 
34 1 71.1527 13.8473 13.8473 
35 1 12.0565 15.6381 12.0565 
36 1 13.8473 17.4289 13.8473 
37 1 15.6381 15.6381 12.0565 
38 1 17.4289 17.4289 13.8473 
39 1 19.2197 15.6381 12.0565 
40 1 21.0105 17.4289 13.8473 
41 1 22.8013 15.6381 12.0565 
42 1 24.5921 17.4289 13.8473 
43 1 26.3829 15.6381 12.0565 
44 1 28.1736 17.4289 13.8473 
45 1 29.9644 15.6381 12.0565 
46 1 31.7552 17.4289 13.8473 
47 1 33.546 15.6381 12.0565 
48 1 35.3368 17.4289 13.8473 
49 1 37.1276 15.6381 12.0565 
50 1 38.9184 17.4289 13.8473 
51 1 40.7092 15.6381 12.0565 
52 1 42.5 17.4289 13.8473 
53 1 44.2908 15.6381 12.0565 
54 1 46.0816 17.4289 13.8473 
55 1 47.8724 15.6381 12.0565 
56 1 49.6632 17.4289 13.8473 
57 1 51.454 15.6381 12.0565 
58 1 53.2448 17.4289 13.8473 
59 1 55.0356 15.6381 12.0565 
60 1 56.8264 17.4289 13.8473 
61 1 58.6171 15.6381 12.0565 
62 1 60.4079 17.4289 13.8473 
63 1 62.1987 15.6381 12.0565 
64 1 63.9895 17.4289 13.8473 
65 1 65.7803 15.6381 12.0565 
66 1 67.5711 17.4289 13.8473 
67 1 69.3619 15.6381 12.0565 
68 1 71.1527 17.4289 13.8473 
69 1 12.0565 19.2197 12.0565 
70 1 13.8473 21.0105 13.8473 
71 1 15.6381 19.2197 12.0565 
72 1 17.4289 21.0105 13.8473 
73 1 19.2197 19.2197 12.0565 
74 1 21.0105 21.0105 13.8473 
75 1 22.8013 19.2197 12.0565 
76 1 24.5921 21.0105 13.8473 
77 1 26.3829 19.2197 12.0565 
78 1 28.1736 21.0105 13.8473 
79 1 29.9644 19.2197 12.0565 
80 1 31.7552 21.0105 13.8473 
81 1 33.546 19.2197 12.0565 
82 1 35.3368 21.0105 13.8473 
83 1 37.1276 19.2197 12.0565 
84 1 38.9184 21.0105 13.8473 
85 1 40.7092 19.2197 12.0565 
86 1 42.5 21.0105 13.8473 
87 1 44.2908 19.2197 12.0565 
88 1 46.0816 21.0105 13.8473 
89 1 47.8724 19.2197 12.0565 
90 1 49.6632 21.0105 13.8473 
91 1 51.454 19.2197 12.0565 
92 1 53.2448 21.0105 13.8473 
93 1 55.0356 19.2197 12.0565 
94 1 56.8264 21.0105 13.8473 
95 1 58.6171 19.2197 12.0565 
96 1 60.4079 21.0105 13.8473 
97 1 62.1987 19.2197 12.0565 
98 1 63.9895 21.0105 13.8473 
99 1 65.7803 19.2197 12.0565 
100 1 67.5711 21.0105 13.8473 
101 1 69.3619 19.2197 12.0565 
102 1 71.1527 21.0105 13.8473 
103 1 12.0565 22.8013 12.0565 
104 1 13.8473 24.5921 13.8473 
105 1 15.6381 22.8013 12.0565 
106 1 17.4289 24.5921 13.8473 
107 1 19.2197 22.8013 12.0565 
108 1 21.0105 24.5921 13.8473 
109 1 22.8013 22.8013 12.0565 
110 1 24.5921 24.5921 13.8473 
111 1 26.3829 22.8013 12.0565 
112 1 28.1736 24.5921 13.8473 
113 1 29.9644 22.8013 12.0565 
114 1 31.7552 24.5921 13.8473 
115 1 33.546 22.8013 12.0565 
116 1 35.3368 24.5921 13.8473 
117 1 37.1276 22.8013 12.0565 
118 1 38.9184 24.5921 13.8473 
119 1 40.7092 22.8013 12.0565 
120 1 42.5 24.5921 13.8473 
121 1 44.2908 22.8013 12.0565 
122 1 46.0816 24.5921 13.8473 
123 1 47.8724 22.8013 12.0565 
124 1 49.6632 24.5921 13.8473 
125 1 51.454 22.8013 12.0565 
126 1 53.2448 24.5921 13.8473 
127 1 55.0356 22.8013 12.0565 
128 1 56.8264 24.5921 13.8473 
129 1 58.6171 22.8013 12.0565 
130 1 60.4079 24.5921 13.8473 
131 1 62.1987 22.8013 12.0565 
132 1 63.9895 24.5921 13.8473 
133 1 65.7803 22.8013 12.0565 
134 1 67.5711 24.5921 13.8473 
135 1 69.3619 22.8013 12.0565 
136 1 71.1527 24.5921 13.8473 
137 1 12.0565 26.3829 12.0565 
138 1 13.8473 28.1736 13.8473 
139 1 15.6381 26.3829 12.0565 
140 1 17.4289 28.1736 13.8473 
141 1 19.2197 26.3829 12.0565 
142 1 21.0105 28.1736 13.8473 
143 1 22.8013 26.3829 12.0565 
144 1 24.5921 28.1736 13.8473 
145 1 26.3829 26.3829 12.0565 
146 1 28.1736 28.1736 13.8473 
147 1 29.9644 26.3829 12.0565 
148 1 31.7552 28.1736 13.8473 
149 1 33.546 26.3829 12.0565 
150 1 35.3368 28.1736 13.8473 
151 1 37.1276 26.3829 12.0565 
152 1 38.9184 28.1736 13.8473 
153 1 40.7092 26.3829 12.0565 
154 1 42.5 28.1736 13.8473 
155 1 44.2908 26.3829 12.0565 
156 1 46.0816 28.1736 13.8473 
157 1 47.8724 26.3829 12.0565 
158 1 49.6632 28.1736 13.8473 
159 1 51.454 26.3829 12.0565 
160 1 53.2448 28.1736 13.8473 
161 1 55.0356 26.3829 12.0565 
162 1 56.8264 28.1736 13.8473 
163 1 58.6171 26.3829 12.0565 
164 1 60.4079 28.1736 13.8473 
165 1 62.1987 26.3829 12.0565 
166 1 63.9895 28.1736 13.8473 
167 1 65.7803 26.3829 12.0565 
168 1 67.5711 28.1736 13.8473 
169 1 69.3619 26.3829 12.0565 
170 1 71.1527 28.1736 13.8473 
171 1 12.0565 29.9644 12.0565 
172 1 13.8473 31.7552 13.8473 
173 1 15.6381 29.9644 12.0565 
174 1 17.4289 31.7552 13.8473 
175 1 19.2197 29.9644 12.0565 
176 1 21.0105 31.7552 13.8473 
177 1 22.8013 29.9644 12.0565 
178 1 24.5921 31.7552 13.8473 
179 1 26.3829 29.9644 12.0565 
180 1 28.1736 31.7552 13.8473 
181 1 29.9644 29.9644 12.0565 
182 1 31.7552 31.7552 13.8473 
183 1 33.546 29.9644 12.0565 
184 1 35.3368 31.7552 13.8473 
185 1 37.1276 29.9644 12.0565 
186 1 38.9184 31.7552 13.8473 
187 1 40.7092 29.9644 12.0565 
188 1 42.5 31.7552 13.8473 
189 1 44.2908 29.9644 12.0565 
190 1 46.0816 31.7552 13.8473 
191 1 47.8724 29.9644 12.0565 
192 1 49.6632 31.7552 13.8473 
193 1 51.454 29.9644 12.0565 
194 1 53.2448 31.7552 13.8473 
195 1 55.0356 29.9644 12.0565 
196 1 56.8264 31.7552 13.8473 
197 1 58.6171 29.9644 12.0565 
198 1 60.4079 31.7552 13.8473 
199 1 62.1987 29.9644 12.0565 
200 1 63.9895 31.7552 13.8473 
201 1 65.7803 29.9644 12.0565 
202 1 67.5711 31.7552 13.8473 
203 1 69.3619 29.9644 12.0565 
204 1 71.1527 31.7552 13.8473 
205 1 12.0565 33.546 12.0565 
206 1 13.8473 35.3368 13.8473 
207 1 15.6381 33.546 12.0565 
208 1 17.4289 35.3368 13.8473 
209 1 19.2197 33.546 12.0565 
210 1 21.0105 35.3368 13.8473 
211 1 22.8013 33.546 12.0565 
212 1 24.5921 35.3368 13.8473 
213 1 26.3829 33.546 12.0565 
214 1 28.1736 35.3368 13.8473 
215 1 29.9644 33.546 12.0565 
216 1 31.7552 35.3368 13.8473 
217 1 33.546 33.546 12.0565 
218 1 35.3368 35.3368 13.8473 
219 1 37.1276 33.546 12.0565 
220 1 38.9184 35.3368 13.8473 
221 1 40.7092 33.546 12.0565 
222 1 42.5 35.3368 13.8473 
223 1 44.2908 33.546 12.0565 
224 1 46.0816 35.3368 13.8473 
225 1 47.8724 33.546 12.0565 
226 1 49.6632 35.3368 13.8473 
227 1 51.454 33.546 12.0565 
228 1 53.2448 35.3368 13.8473 
229 1 55.0356 33.546 12.0565 
230 1 56.8264 35.3368 13.8473 
231 1 58.6171 33.546 12.0565 
232 1 60.4079 35.3368 13.8473 
233 1 62.1987 33.546 12.0565 
234 1 63.9895 35.3368 13.8473 
235 1 65.7803 33.546 12.0565 
236 1 67.5711 35.3368 13.8473 
237 1 69.3619 33.546 12.0565 
238 1 71.1527 35.3368 13.8473 
239 1 12.0565 37.1276 12.0565 
240 1 13.8473 38.9184 13.8473 
241 1 15.6381 37.1276 12.0565 
242 1 17.4289 38.9184 13.8473 
243 1 19.2197 37.1276 12.0565 
244 1 21.0105 38.9184 13.8473 
245 1 22.8013 37.1276 12.0565 
246 1 24.5921 38.9184 13.8473 
247 1 26.3829 37.1276 12.0565 
248 1 28.1736 38.9184 13.8473 
249 1 29.9644 37.1276 12.0565 
250 1 31.7552 38.9184 13.8473 
251 1 33.546 37.1276 12.0565 
252 1 35.3368 38.9184 13.8473 
253 1 37.1276 37.1276 12.0565 
254 1 38.9184 38.9184 13.8473 
255 1 40.7092 37.1276 12.0565 
256 1 42.5 38.9184 13.8473 
257 1 44.2908 37.1276 12.0565 
258 1 46.0816 38.9184 13.8473 
259 1 47.8724 37.1276 12.0565 
260 1 49.6632 38.9184 13.8473 
261 1 51.454 37.1276 12.0565 
262 1 53.2448 38.9184 13.8473 
263 1 55.0356 37.1276 12.0565 
264 1 56.8264 38.9184 13.8473 
265 1 58.6171 37.1276 12.0565 
266 1 60.4079 38.9184 13.8473 
267 1 62.1987 37.1276 12.0565 
268 1 63.9895 38.9184 13.8473 
269 1 65.7803 37.1276 12.0565 
270 1 67.5711 38.9184 13.8473 
271 1 69.3619 37.1276 12.0565 
272 1 71.1527 38.9184 13.8473 
273 1 12.0565 40.7092 12.0565 
274 1 13.8473 42.5 13.8473 
275 1 15.6381 40.7092 12.0565 
276 1 17.4289 42.5 13.8473 
277 1 19.2197 40.7092 12.0565 
278 1 21.0105 42.5 13.8473 
279 1 22.8013 40.7092 12.0565 
280 1 24.5921 42.5 13.8473 
281 1 26.3829 40.7092 12.0565 
282 1 28.1736 42.5 13.8473 
283 1 29.9644 40.7092 12.0565 
284 1 31.7552 42.5 13.8473 
285 1 33.546 40.7092 12.0565 
286 1 35.3368 42.5 13.8473 
287 1 37.1276 40.7092 12.0565 
288 1 38.9184 42.5 13.8473 
289 1 40.7092 40.7092 12.0565 
290 1 42.5 42.5 13.8473 
291 1 44.2908 40.7092 12.0565 
292 1 46.0816 42.5 13.8473 
293 1 47.8724 40.7092 12.0565 
294 1 49.6632 42.5 13.8473 
295 1 51.454 40.7092 12.0565 
296 1 53.2448 42.5 13.8473 
297 1 55.0356 40.7092 12.0565 
298 1 56.8264 42.5 13.8473 
299 1 58.6171 40.7092 12.0565 
300 1 60.4079 42.5 13.8473 
301 1 62.1987 40.7092 12.0565 
302 1 63.9895 42.5 13.8473 
303 1 65.7803 40.7092 12.0565 
304 1 67.5711 42.5 13.8473 
305 1 69.3619 40.7092 12.0565 
306 1 71.1527 42.5 13.8473 
307 1 12.0565 44.2908 12.0565 
308 1 13.8473 46.0816 13.8473 
309 1 15.6381 44.2908 12.0565 
310 1 17.4289 46.0816 13.8473 
311 1 19.2197 44.2908 12.0565 
312 1 21.0105 46.0816 13.8473 
313 1 22.8013 44.2908 12.0565 
314 1 24.5921 46.0816 13.8473 
315 1 26.3829 44.2908 12.0565 
316 1 28.1736 46.0816 13.8473 
317 1 29.9644 44.2908 12.0565 
318 1 31.7552 46.0816 13.8473 
319 1 33.546 44.2908 12.0565 
320 1 35.3368 46.0816 13.8473 
321 1 37.1276 44.2908 12.0565 
322 1 38.9184 46.0816 13.8473 
323 1 40.7092 44.2908 12.0565 
324 1 42.5 46.0816 13.8473 
325 1 44.2908 44.2908 12.0565 
326 1 46.0816 46.0816 13.8473 
327 1 47.8724 44.2908 12.0565 
328 1 49.6632 46.0816 13.8473 
329 1 51.454 44.2908 12.0565 
330 1 53.2448 46.0816 13.8473 
331 1 55.0356 44.2908 12.0565 
332 1 56.8264 46.0816 13.8473 
333 1 58.6171 44.2908 12.0565 
334 1 60.4079 46.0816 13.8473 
335 1 62.1987 44.2908 12.0565 
336 1 63.9895 46.0816 13.8473 
337 1 65.7803 44.2908 12.0565 
338 1 67.5711 46.0816 13.8473 
339 1 69.3619 44.2908 12.0565 
340 1 71.1527 46.0816 13.8473 
341 1 12.0565 47.8724 12.0565 
342 1 13.8473 49.6632 13.8473 
343 1 15.6381 47.8724 12.0565 
344 1 17.4289 49.6632 13.8473 
345 1 19.2197 47.8724 12.0565 
346 1 21.0105 49.6632 13.8473 
347 1 22.8013 47.8724 12.0565 
348 1 24.5921 49.6632 13.8473 
349 1 26.3829 47.8724 12.0565 
350 1 28.1736 49.6632 13.8473 
351 1 29.9644 47.8724 12.0565 
352 1 31.7552 49.6632 13.8473 
353 1 33.546 47.8724 12.0565 
354 1 35.3368 49.6632 13.8473 
355 1 37.1276 47.8724 12.0565 
356 1 38.9184 49.6632 13.8473 
357 1 40.7092 47.8724 12.0565 
358 1 42.5 49.6632 13.8473 
359 1 44.2908 47.8724 12.0565 
360 1 46.0816 49.6632 13.8473 
361 1 47.8724 47.8724 12.0565 
362 1 49.6632 49.6632 13.8473 
363 1 51.454 47.8724 12.0565 
364 1 53.2448 49.6632 13.8473 
365 1 55.0356 47.8724 12.0565 
366 1 56.8264 49.6632 13.8473 
367 1 58.6171 47.8724 12.0565 
368 1 60.4079 49.6632 13.8473 
369 1 62.1987 47.8724 12.0565 
370 1 63.9895 49.6632 13.8473 
371 1 65.7803 47.8724 12.0565 
372 1 67.5711 49.6632 13.8473 
373 1 69.3619 47.8724 12.0565 
374 1 71.1527 49.6632 13.8473 
375 1 12.0565 51.454 12.0565 
376 1 13.8473 53.2448 13.8473 
377 1 15.6381 51.454 12.0565 
378 1 17.4289 53.2448 13.8473 
379 1 19.2197 51.454 12.0565 
380 1 21.0105 53.2448 13.8473 
381 1 22.8013 51.454 12.0565 
382 1 24.5921 53.2448 13.8473 
383 1 26.3829 51.454 12.0565 
384 1 28.1736 53.2448 13.8473 
385 1 29.9644 51.454 12.0565 
386 1 31.7552 53.2448 13.8473 
387 1 33.546 51.454 12.0565 
388 1 35.3368 53.2448 13.8473 
389 1 37.1276 51.454 12.0565 
390 1 38.9184 53.2448 13.8473 
391 1 40.7092 51.454 12.0565 
392 1 42.5 53.2448 13.8473 
393 1 44.2908 51.454 12.0565 
394 1 46.0816 53.2448 13.8473 
395 1 47.8724 51.454 12.0565 
396 1 49.6632 53.2448 13.8473 
397 1 51.454 51.454 12.0565 
398 1 53.2448 53.2448 13.8473 
399 1 55.0356 51.454 12.0565 
400 1 56.8264 53.2448 13.8473 
401 1 58.6171 51.454 12.0565 
402 1 60.4079 53.2448 13.8473 
403 1 62.1987 51.454 12.0565 
404 1 63.9895 53.2448 13.8473 
405 1 65.7803 51.454 12.0565 
406 1 67.5711 53.2448 13.8473 
407 1 69.3619 51.454 12.0565 
408 1 71.1527 53.2448 13.8473 
409 1 12.0565 55.0356 12.0565 
410 1 13.8473 56.8264 13.8473 
411 1 15.6381 55.0356 12.0565 
412 1 17.4289 56.8264 13.8473 
413 1 19.2197 55.0356 12.0565 
414 1 21.0105 56.8264 13.8473 
415 1 22.8013 55.0356 12.0565 
416 1 24.5921 56.8264 13.8473 
417 1 26.3829 55.0356 12.0565 
418 1 28.1736 56.8264 13.8473 
419 1 29.9644 55.0356 12.0565 
420 1 31.7552 56.8264 13.8473 
421 1 33.546 55.0356 12.0565 
422 1 35.3368 56.8264 13.8473 
423 1 37.1276 55.0356 12.0565 
424 1 38.9184 56.8264 13.8473 
425 1 40.7092 55.0356 12.0565 
426 1 42.5 56.8264 13.8473 
427 1 44.2908 55.0356 12.0565 
428 1 46.0816 56.8264 13.8473 
429 1 47.8724 55.0356 12.0565 
430 1 49.6632 56.8264 13.8473 
431 1 51.454 55.0356 12.0565 
432 1 53.2448 56.8264 13.8473 
433 1 55.0356 55.0356 12.0565 
434 1 56.8264 56.8264 13.8473 
435 1 58.6171 55.0356 12.0565 
436 1 60.4079 56.8264 13.8473 
437 1 62.1987 55.0356 12.0565 
438 1 63.9895 56.8264 13.8473 
439 1 65.7803 55.0356 12.0565 
440 1 67.5711 56.8264 13.8473 
441 1 69.3619 55.0356 12.0565 
442 1 71.1527 56.8264 13.8473 
443 1 12.0565 58.6171 12.0565 
444 1 13.8473 60.4079 13.8473 
445 1 15.6381 58.6171 12.0565 
446 1 17.4289 60.4079 13.8473 
447 1 19.2197 58.6171 12.0565 
448 1 21.0105 60.4079 13.8473 
449 1 22.8013 58.6171 12.0565 
450 1 24.5921 60.4079 13.8473 
451 1 26.3829 58.6171 12.0565 
452 1 28.1736 60.4079 13.8473 
453 1 29.9644 58.6171 12.0565 
454 1 31.7552 60.4079 13.8473 
455 1 33.546 58.6171 12.0565 
456 1 35.3368 60.4079 13.8473 
457 1 37.1276 58.6171 12.0565 
458 1 38.9184 60.4079 13.8473 
459 1 40.7092 58.6171 12.0565 
460 1 42.5 60.4079 13.8473 
461 1 44.2908 58.6171 12.0565 
462 1 46.0816 60.4079 13.8473 
463 1 47.8724 58.6171 12.0565 
464 1 49.6632 60.4079 13.8473 
465 1 51.454 58.6171 12.0565 
466 1 53.2448 60.4079 13.8473 
467 1 55.0356 58.6171 12.0565 
468 1 56.8264 60.4079 13.8473 
469 1 58.6171 58.6171 12.0565 
470 1 60.4079 60.4079 13.8473 
471 1 62.1987 58.6171 12.0565 
472 1 63.9895 60.4079 13.8473 
473 1 65.7803 58.6171 12.0565 
474 1 67.5711 60.4079 13.8473 
475 1 69.3619 58.6171 12.0565 
476 1 71.1527 60.4079 13.8473 
477 1 12.0565 62.1987 12.0565 
478 1 13.8473 63.9895 13.8473 
479 1 15.6381 62.1987 12.0565 
480 1 17.4289 63.9895 13.8473 
481 1 19.2197 62.1987 12.0565 
482 1 21.0105 63.9895 13.8473 
483 1 22.8013 62.1987 12.0565 
484 1 24.5921 63.9895 13.8473 
485 1 26.3829 62.1987 12.0565 
486 1 28.1736 63.9895 13.8473 
487 1 29.9644 62.1987 12.0565 
488 1 31.7552 63.9895 13.8473 
489 1 33.546 62.1987 12.0565 
490 1 35.3368 63.9895 13.8473 
491 1 37.1276 62.1987 12.0565 
492 1 38.9184 63.9895 13.8473 
493 1 40.7092 62.1987 12.0565 
494 1 42.5 63.9895 13.8473 
495 1 44.2908 62.1987 12.0565 
496 1 46.0816 63.9895 13.8473 
497 1 47.8724 62.1987 12.0565 
498 1 49.6632 63.9895 13.8473 
499 1 51.454 62.1987 12.0565 
500 1 53.2448 63.9895 13.8473 
501 1 55.0356 62.1987 12.0565 
502 1 56.8264 63.9895 13.8473 
503 1 58.6171 62.1987 12.0565 
504 1 60.4079 63.9895 13.8473 
505 1 62.1987 62.1987 12.0565 
506 1 63.9895 63.9895 13.8473 
507 1 65.7803 62.1987 12.0565 
508 1 67.5711 63.9895 13.8473 
509 1 69.3619 62.1987 12.0565 
510 1 71.1527 63.9895 13.8473 
511 1 12.0565 65.7803 12.0565 
512 1 13.8473 67.5711 13.8473 
513 1 15.6381 65.7803 12.0565 
514 1 17.4289 67.5711 13.8473 
515 1 19.2197 65.7803 12.0565 
516 1 21.0105 67.5711 13.8473 
517 1 22.8013 65.7803 12.0565 
518 1 24.5921 67.5711 13.8473 
519 1 26.3829 65.7803 12.0565 
520 1 28.1736 67.5711 13.8473 
521 1 29.9644 65.7803 12.0565 
522 1 31.7552 67.5711 13.8473 
523 1 33.546 65.7803 12.0565 
524 1 35.3368 67.5711 13.8473 
525 1 37.1276 65.7803 12.0565 
526 1 38.9184 67.5711 13.8473 
527 1 40.7092 65.7803 12.0565 
528 1 42.5 67.5711 13.8473 
529 1 44.2908 65.7803 12.0565 
530 1 46.0816 67.5711 13.8473 
531 1 47.8724 65.7803 12.0565 
532 1 49.6632 67.5711 13.8473 
533 1 51.454 65.7803 12.0565 
534 1 53.2448 67.5711 13.8473 
535 1 55.0356 65.7803 12.0565 
536 1 56.8264 67.5711 13.8473 
537 1 58.6171 65.7803 12.0565 
538 1 60.4079 67.5711 13.8473 
539 1 62.1987 65.7803 12.0565 
540 1 63.9895 67.5711 13.8473 
541 1 65.7803 65.7803 12.0565 
542 1 67.5711 67.5711 13.8473 
543 1 69.3619 65.7803 12.0565 
544 1 71.1527 67.5711 13.8473 
545 1 12.0565 69.3619 12.0565 
546 1 13.8473 71.1527 13.8473 
547 1 15.6381 69.3619 12.0565 
548 1 17.4289 71.1527 13.8473 
549 1 19.2197 69.3619 12.0565 
550 1 21.0105 71.1527 13.8473 
551 1 22.8013 69.3619 12.0565 
552 1 24.5921 71.1527 13.8473 
553 1 26.3829 69.3619 12.0565 
554 1 28.1736 71.1527 13.8473 
555 1 29.9644 69.3619 12.0565 
556 1 31.7552 71.1527 13.8473 
557 1 33.546 69.3619 12.0565 
558 1 35.3368 71.1527 13.8473 
559 1 37.1276 69.3619 12.0565 
560 1 38.9184 71.1527 13.8473 
561 1 40.7092 69.3619 12.0565 
562 1 42.5 71.1527 13.8473 
563 1 44.2908 69.3619 12.0565 
564 1 46.0816 71.1527 13.8473 
565 1 47.8724 69.3619 12.0565 
566 1 49.6632 71.1527 13.8473 
567 1 51.454 69.3619 12.0565 
568 1 53.2448 71.1527 13.8473 
569 1 55.0356 69.3619 12.0565 
570 1 56.8264 71.1527 13.8473 
571 1 58.6171 69.3619 12.0565 
572 1 60.4079 71.1527 13.8473 
573 1 62.1987 69.3619 12.0565 
574 1 63.9895 71.1527 13.8473 
575 1 65.7803 69.3619 12.0565 
576 1 67.5711 71.1527 13.8473 
577 1 69.3619 69.3619 12.0565 
578 1 71.1527 71.1527 13.8473 
579 1 12.0565 12.0565 15.6381 
580 1 13.8473 13.8473 17.4289 
581 1 15.6381 12.0565 15.6381 
582 1 17.4289 13.8473 17.4289 
583 1 19.2197 12.0565 15.6381 
584 1 21.0105 13.8473 17.4289 
585 1 22.8013 12.0565 15.6381 
586 1 24.5921 13.8473 17.4289 
587 1 26.3829 12.0565 15.6381 
588 1 28.1736 13.8473 17.4289 
589 1 29.9644 12.0565 15.6381 
590 1 31.7552 13.8473 17.4289 
591 1 33.546 12.0565 15.6381 
592 1 35.3368 13.8473 17.4289 
593 1 37.1276 12.0565 15.6381 
594 1 38.9184 13.8473 17.4289 
595 1 40.7092 12.0565 15.6381 
596 1 42.5 13.8473 17.4289 
597 1 44.2908 12.0565 15.6381 
598 1 46.0816 13.8473 17.4289 
599 1 47.8724 12.0565 15.6381 
600 1 49.6632 13.8473 17.4289 
601 1 51.454 12.0565 15.6381 
602 1 53.2448 13.8473 17.4289 
603 1 55.0356 12.0565 15.6381 
604 1 56.8264 13.8473 17.4289 
605 1 58.6171 12.0565 15.6381 
606 1 60.4079 13.8473 17.4289 
607 1 62.1987 12.0565 15.6381 
608 1 63.9895 13.8473 17.4289 
609 1 65.7803 12.0565 15.6381 
610 1 67.5711 13.8473 17.4289 
611 1 69.3619 12.0565 15.6381 
612 1 71.1527 13.8473 17.4289 
613 1 12.0565 15.6381 15.6381 
614 1 13.8473 17.4289 17.4289 
615 1 15.6381 15.6381 15.6381 
616 1 17.4289 17.4289 17.4289 
617 1 19.2197 15.6381 15.6381 
618 1 21.0105 17.4289 17.4289 
619 1 22.8013 15.6381 15.6381 
620 1 24.5921 17.4289 17.4289 
621 1 26.3829 15.6381 15.6381 
622 1 28.1736 17.4289 17.4289 
623 1 29.9644 15.6381 15.6381 
624 1 31.7552 17.4289 17.4289 
625 1 33.546 15.6381 15.6381 
626 1 35.3368 17.4289 17.4289 
627 1 37.1276 15.6381 15.6381 
628 1 38.9184 17.4289 17.4289 
629 1 40.7092 15.6381 15.6381 
630 1 42.5 17.4289 17.4289 
631 1 44.2908 15.6381 15.6381 
632 1 46.0816 17.4289 17.4289 
633 1 47.8724 15.6381 15.6381 
634 1 49.6632 17.4289 17.4289 
635 1 51.454 15.6381 15.6381 
636 1 53.2448 17.4289 17.4289 
637 1 55.0356 15.6381 15.6381 
638 1 56.8264 17.4289 17.4289 
639 1 58.6171 15.6381 15.6381 
640 1 60.4079 17.4289 17.4289 
641 1 62.1987 15.6381 15.6381 
642 1 63.9895 17.4289 17.4289 
643 1 65.7803 15.6381 15.6381 
644 1 67.5711 17.4289 17.4289 
645 1 69.3619 15.6381 15.6381 
646 1 71.1527 17.4289 17.4289 
647 1 12.0565 19.2197 15.6381 
648 1 13.8473 21.0105 17.4289 
649 1 15.6381 19.2197 15.6381 
650 1 17.4289 21.0105 17.4289 
651 1 19.2197 19.2197 15.6381 
652 1 21.0105 21.0105 17.4289 
653 1 22.8013 19.2197 15.6381 
654 1 24.5921 21.0105 17.4289 
655 1 26.3829 19.2197 15.6381 
656 1 28.1736 21.0105 17.4289 
657 1 29.9644 19.2197 15.6381 
658 1 31.7552 21.0105 17.4289 
659 1 33.546 19.2197 15.6381 
660 1 35.3368 21.0105 17.4289 
661 1 37.1276 19.2197 15.6381 
662 1 38.9184 21.0105 17.4289 
663 1 40.7092 19.2197 15.6381 
664 1 42.5 21.0105 17.4289 
665 1 44.2908 19.2197 15.6381 
666 1 46.0816 21.0105 17.4289 
667 1 47.8724 19.2197 15.6381 
668 1 49.6632 21.0105 17.4289 
669 1 51.454 19.2197 15.6381 
670 1 53.2448 21.0105 17.4289 
671 1 55.0356 19.2197 15.6381 
672 1 56.8264 21.0105 17.4289 
673 1 58.6171 19.2197 15.6381 
674 1 60.4079 21.0105 17.4289 
675 1 62.1987 19.2197 15.6381 
676 1 63.9895 21.0105 17.4289 
677 1 65.7803 19.2197 15.6381 
678 1 67.5711 21.0105 17.4289 
679 1 69.3619 19.2197 15.6381 
680 1 71.1527 21.0105 17.4289 
681 1 12.0565 22.8013 15.6381 
682 1 13.8473 24.5921 17.4289 
683 1 15.6381 22.8013 15.6381 
684 1 17.4289 24.5921 17.4289 
685 1 19.2197 22.8013 15.6381 
686 1 21.0105 24.5921 17.4289 
687 1 22.8013 22.8013 15.6381 
688 1 24.5921 24.5921 17.4289 
689 1 26.3829 22.8013 15.6381 
690 1 28.1736 24.5921 17.4289 
691 1 29.9644 22.8013 15.6381 
692 1 31.7552 24.5921 17.4289 
693 1 33.546 22.8013 15.6381 
694 1 35.3368 24.5921 17.4289 
695 1 37.1276 22.8013 15.6381 
696 1 38.9184 24.5921 17.4289 
697 1 40.7092 22.8013 15.6381 
698 1 42.5 24.5921 17.4289 
699 1 44.2908 22.8013 15.6381 
700 1 46.0816 24.5921 17.4289 
701 1 47.8724 22.8013 15.6381 
702 1 49.6632 24.5921 17.4289 
703 1 51.454 22.8013 15.6381 
704 1 53.2448 24.5921 17.4289 
705 1 55.0356 22.8013 15.6381 
706 1 56.8264 24.5921 17.4289 
707 1 58.6171 22.8013 15.6381 
708 1 60.4079 24.5921 17.4289 
709 1 62.1987 22.8013 15.6381 
710 1 63.9895 24.5921 17.4289 
711 1 65.7803 22.8013 15.6381 
712 1 67.5711 24.5921 17.4289 
713 1 69.3619 22.8013 15.6381 
714 1 71.1527 24.5921 17.4289 
715 1 12.0565 26.3829 15.6381 
716 1 13.8473 28.1736 17.4289 
717 1 15.6381 26.3829 15.6381 
718 1 17.4289 28.1736 17.4289 
719 1 19.2197 26.3829 15.6381 
720 1 21.0105 28.1736 17.4289 
721 1 22.8013 26.3829 15.6381 
722 1 24.5921 28.1736 17.4289 
723 1 26.3829 26.3829 15.6381 
724 1 28.1736 28.1736 17.4289 
725 1 29.9644 26.3829 15.6381 
726 1 31.7552 28.1736 17.4289 
727 1 33.546 26.3829 15.6381 
728 1 35.3368 28.1736 17.4289 
729 1 37.1276 26.3829 15.6381 
730 1 38.9184 28.1736 17.4289 
731 1 40.7092 26.3829 15.6381 
732 1 42.5 28.1736 17.4289 
733 1 44.2908 26.3829 15.6381 
734 1 46.0816 28.1736 17.4289 
735 1 47.8724 26.3829 15.6381 
736 1 49.6632 28.1736 17.4289 
737 1 51.454 26.3829 15.6381 
738 1 53.2448 28.1736 17.4289 
739 1 55.0356 26.3829 15.6381 
740 1 56.8264 28.1736 17.4289 
741 1 58.6171 26.3829 15.6381 
742 1 60.4079 28.1736 17.4289 
743 1 62.1987 26.3829 15.6381 
744 1 63.9895 28.1736 17.4289 
745 1 65.7803 26.3829 15.6381 
746 1 67.5711 28.1736 17.4289 
747 1 69.3619 26.3829 15.6381 
748 1 71.1527 28.1736 17.4289 
749 1 12.0565 29.9644 15.6381 
750 1 13.8473 31.7552 17.4289 
751 1 15.6381 29.9644 15.6381 
752 1 17.4289 31.7552 17.4289 
753 1 19.2197 29.9644 15.6381 
754 1 21.0105 31.7552 17.4289 
755 1 22.8013 29.9644 15.6381 
756 1 24.5921 31.7552 17.4289 
757 1 26.3829 29.9644 15.6381 
758 1 28.1736 31.7552 17.4289 
759 1 29.9644 29.9644 15.6381 
760 1 31.7552 31.7552 17.4289 
761 1 33.546 29.9644 15.6381 
762 1 35.3368 31.7552 17.4289 
763 1 37.1276 29.9644 15.6381 
764 1 38.9184 31.7552 17.4289 
765 1 40.7092 29.9644 15.6381 
766 1 42.5 31.7552 17.4289 
767 1 44.2908 29.9644 15.6381 
768 1 46.0816 31.7552 17.4289 
769 1 47.8724 29.9644 15.6381 
770 1 49.6632 31.7552 17.4289 
771 1 51.454 29.9644 15.6381 
772 1 53.2448 31.7552 17.4289 
773 1 55.0356 29.9644 15.6381 
774 1 56.8264 31.7552 17.4289 
775 1 58.6171 29.9644 15.6381 
776 1 60.4079 31.7552 17.4289 
777 1 62.1987 29.9644 15.6381 
778 1 63.9895 31.7552 17.4289 
779 1 65.7803 29.9644 15.6381 
780 1 67.5711 31.7552 17.4289 
781 1 69.3619 29.9644 15.6381 
782 1 71.1527 31.7552 17.4289 
783 1 12.0565 33.546 15.6381 
784 1 13.8473 35.3368 17.4289 
785 1 15.6381 33.546 15.6381 
786 1 17.4289 35.3368 17.4289 
787 1 19.2197 33.546 15.6381 
788 1 21.0105 35.3368 17.4289 
789 1 22.8013 33.546 15.6381 
790 1 24.5921 35.3368 17.4289 
791 1 26.3829 33.546 15.6381 
792 1 28.1736 35.3368 17.4289 
793 1 29.9644 33.546 15.6381 
794 1 31.7552 35.3368 17.4289 
795 1 33.546 33.546 15.6381 
796 1 35.3368 35.3368 17.4289 
797 1 37.1276 33.546 15.6381 
798 1 38.9184 35.3368 17.4289 
799 1 40.7092 33.546 15.6381 
800 1 42.5 35.3368 17.4289 
801 1 44.2908 33.546 15.6381 
802 1 46.0816 35.3368 17.4289 
803 1 47.8724 33.546 15.6381 
804 1 49.6632 35.3368 17.4289 
805 1 51.454 33.546 15.6381 
806 1 53.2448 35.3368 17.4289 
807 1 55.0356 33.546 15.6381 
808 1 56.8264 35.3368 17.4289 
809 1 58.6171 33.546 15.6381 
810 1 60.4079 35.3368 17.4289 
811 1 62.1987 33.546 15.6381 
812 1 63.9895 35.3368 17.4289 
813 1 65.7803 33.546 15.6381 
814 1 67.5711 35.3368 17.4289 
815 1 69.3619 33.546 15.6381 
816 1 71.1527 35.3368 17.4289 
817 1 12.0565 37.1276 15.6381 
818 1 13.8473 38.9184 17.4289 
819 1 15.6381 37.1276 15.6381 
820 1 17.4289 38.9184 17.4289 
821 1 19.2197 37.1276 15.6381 
822 1 21.0105 38.9184 17.4289 
823 1 22.8013 37.1276 15.6381 
824 1 24.5921 38.9184 17.4289 
825 1 26.3829 37.1276 15.6381 
826 1 28.1736 38.9184 17.4289 
827 1 29.9644 37.1276 15.6381 
828 1 31.7552 38.9184 17.4289 
829 1 33.546 37.1276 15.6381 
830 1 35.3368 38.9184 17.4289 
831 1 37.1276 37.1276 15.6381 
832 1 38.9184 38.9184 17.4289 
833 1 40.7092 37.1276 15.6381 
834 1 42.5 38.9184 17.4289 
835 1 44.2908 37.1276 15.6381 
836 1 46.0816 38.9184 17.4289 
837 1 47.8724 37.1276 15.6381 
838 1 49.6632 38.9184 17.4289 
839 1 51.454 37.1276 15.6381 
840 1 53.2448 38.9184 17.4289 
841 1 55.0356 37.1276 15.6381 
842 1 56.8264 38.9184 17.4289 
843 1 58.6171 37.1276 15.6381 
844 1 60.4079 38.9184 17.4289 
845 1 62.1987 37.1276 15.6381 
846 1 63.9895 38.9184 17.4289 
847 1 65.7803 37.1276 15.6381 
848 1 67.5711 38.9184 17.4289 
849 1 69.3619 37.1276 15.6381 
850 1 71.1527 38.9184 17.4289 
851 1 12.0565 40.7092 15.6381 
852 1 13.8473 42.5 17.4289 
853 1 15.6381 40.7092 15.6381 
854 1 17.4289 42.5 17.4289 
855 1 19.2197 40.7092 15.6381 
856 1 21.0105 42.5 17.4289 
857 1 22.8013 40.7092 15.6381 
858 1 24.5921 42.5 17.4289 
859 1 26.3829 40.7092 15.6381 
860 1 28.1736 42.5 17.4289 
861 1 29.9644 40.7092 15.6381 
862 1 31.7552 42.5 17.4289 
863 1 33.546 40.7092 15.6381 
864 1 35.3368 42.5 17.4289 
865 1 37.1276 40.7092 15.6381 
866 1 38.9184 42.5 17.4289 
867 1 40.7092 40.7092 15.6381 
868 1 42.5 42.5 17.4289 
869 1 44.2908 40.7092 15.6381 
870 1 46.0816 42.5 17.4289 
871 1 47.8724 40.7092 15.6381 
872 1 49.6632 42.5 17.4289 
873 1 51.454 40.7092 15.6381 
874 1 53.2448 42.5 17.4289 
875 1 55.0356 40.7092 15.6381 
876 1 56.8264 42.5 17.4289 
877 1 58.6171 40.7092 15.6381 
878 1 60.4079 42.5 17.4289 
879 1 62.1987 40.7092 15.6381 
880 1 63.9895 42.5 17.4289 
881 1 65.7803 40.7092 15.6381 
882 1 67.5711 42.5 17.4289 
883 1 69.3619 40.7092 15.6381 
884 1 71.1527 42.5 17.4289 
885 1 12.0565 44.2908 15.6381 
886 1 13.8473 46.0816 17.4289 
887 1 15.6381 44.2908 15.6381 
888 1 17.4289 46.0816 17.4289 
889 1 19.2197 44.2908 15.6381 
890 1 21.0105 46.0816 17.4289 
891 1 22.8013 44.2908 15.6381 
892 1 24.5921 46.0816 17.4289 
893 1 26.3829 44.2908 15.6381 
894 1 28.1736 46.0816 17.4289 
895 1 29.9644 44.2908 15.6381 
896 1 31.7552 46.0816 17.4289 
897 1 33.546 44.2908 15.6381 
898 1 35.3368 46.0816 17.4289 
899 1 37.1276 44.2908 15.6381 
900 1 38.9184 46.0816 17.4289 
901 1 40.7092 44.2908 15.6381 
902 1 42.5 46.0816 17.4289 
903 1 44.2908 44.2908 15.6381 
904 1 46.0816 46.0816 17.4289 
905 1 47.8724 44.2908 15.6381 
906 1 49.6632 46.0816 17.4289 
907 1 51.454 44.2908 15.6381 
908 1 53.2448 46.0816 17.4289 
909 1 55.0356 44.2908 15.6381 
910 1 56.8264 46.0816 17.4289 
911 1 58.6171 44.2908 15.6381 
912 1 60.4079 46.0816 17.4289 
913 1 62.1987 44.2908 15.6381 
914 1 63.9895 46.0816 17.4289 
915 1 65.7803 44.2908 15.6381 
916 1 67.5711 46.0816 17.4289 
917 1 69.3619 44.2908 15.6381 
918 1 71.1527 46.0816 17.4289 
919 1 12.0565 47.8724 15.6381 
920 1 13.8473 49.6632 17.4289 
921 1 15.6381 47.8724 15.6381 
922 1 17.4289 49.6632 17.4289 
923 1 19.2197 47.8724 15.6381 
924 1 21.0105 49.6632 17.4289 
925 1 22.8013 47.8724 15.6381 
926 1 24.5921 49.6632 17.4289 
927 1 26.3829 47.8724 15.6381 
928 1 28.1736 49.6632 17.4289 
929 1 29.9644 47.8724 15.6381 
930 1 31.7552 49.6632 17.4289 
931 1 33.546 47.8724 15.6381 
932 1 35.3368 49.6632 17.4289 
933 1 37.1276 47.8724 15.6381 
934 1 38.9184 49.6632 17.4289 
935 1 40.7092 47.8724 15.6381 
936 1 42.5 49.6632 17.4289 
937 1 44.2908 47.8724 15.6381 
938 1 46.0816 49.6632 17.4289 
939 1 47.8724 47.8724 15.6381 
940 1 49.6632 49.6632 17.4289 
941 1 51.454 47.8724 15.6381 
942 1 53.2448 49.6632 17.4289 
943 1 55.0356 47.8724 15.6381 
944 1 56.8264 49.6632 17.4289 
945 1 58.6171 47.8724 15.6381 
946 1 60.4079 49.6632 17.4289 
947 1 62.1987 47.8724 15.6381 
948 1 63.9895 49.6632 17.4289 
949 1 65.7803 47.8724 15.6381 
950 1 67.5711 49.6632 17.4289 
951 1 69.3619 47.8724 15.6381 
952 1 71.1527 49.6632 17.4289 
953 1 12.0565 51.454 15.6381 
954 1 13.8473 53.2448 17.4289 
955 1 15.6381 51.454 15.6381 
956 1 17.4289 53.2448 17.4289 
957 1 19.2197 51.454 15.6381 
958 1 21.0105 53.2448 17.4289 
959 1 22.8013 51.454 15.6381 
960 1 24.5921 53.2448 17.4289 
961 1 26.3829 51.454 15.6381 
962 1 28.1736 53.2448 17.4289 
963 1 29.9644 51.454 15.6381 
964 1 31.7552 53.2448 17.4289 
965 1 33.546 51.454 15.6381 
966 1 35.3368 53.2448 17.4289 
967 1 37.1276 51.454 15.6381 
968 1 38.9184 53.2448 17.4289 
969 1 40.7092 51.454 15.6381 
970 1 42.5 53.2448 17.4289 
971 1 44.2908 51.454 15.6381 
972 1 46.0816 53.2448 17.4289 
973 1 47.8724 51.454 15.6381 