ITEM: TIMESTEP
15
ITEM: NUMBER OF ATOMS
19652
ITEM: BOX BOUNDS pp pp pp
-2.6993395458977143e+00 8.7699339545897786e+01
-2.6993395458977143e+00 8.7699339545897786e+01
-2.6993395458977143e+00 8.7699339545897786e+01
ITEM: ATOMS id type xu yu zu 
1 1 -2.69934 -2.69934 -2.69934 
2 1 -0.0405549 -0.0405549 -2.69934 
3 1 -0.0405549 -2.69934 -0.0405549 
4 1 -2.69934 -0.0405549 -0.0405549 
5 1 2.61823 -2.69934 -2.69934 
6 1 5.27701 -0.0405549 -2.69934 
7 1 5.27701 -2.69934 -0.0405549 
8 1 2.61823 -0.0405549 -0.0405549 
9 1 7.9358 -2.69934 -2.69934 
10 1 10.5946 -0.0405549 -2.69934 
11 1 10.5946 -2.69934 -0.0405549 
12 1 7.9358 -0.0405549 -0.0405549 
13 1 13.2534 -2.69934 -2.69934 
14 1 15.9122 -0.0405549 -2.69934 
15 1 15.9122 -2.69934 -0.0405549 
16 1 13.2534 -0.0405549 -0.0405549 
17 1 18.5709 -2.69934 -2.69934 
18 1 21.2297 -0.0405549 -2.69934 
19 1 21.2297 -2.69934 -0.0405549 
20 1 18.5709 -0.0405549 -0.0405549 
21 1 23.8885 -2.69934 -2.69934 
22 1 26.5473 -0.0405549 -2.69934 
23 1 26.5473 -2.69934 -0.0405549 
24 1 23.8885 -0.0405549 -0.0405549 
25 1 29.2061 -2.69934 -2.69934 
26 1 31.8649 -0.0405549 -2.69934 
27 1 31.8649 -2.69934 -0.0405549 
28 1 29.2061 -0.0405549 -0.0405549 
29 1 34.5236 -2.69934 -2.69934 
30 1 37.1824 -0.0405549 -2.69934 
31 1 37.1824 -2.69934 -0.0405549 
32 1 34.5236 -0.0405549 -0.0405549 
33 1 39.8412 -2.69934 -2.69934 
34 1 42.5 -0.0405549 -2.69934 
35 1 42.5 -2.69934 -0.0405549 
36 1 39.8412 -0.0405549 -0.0405549 
37 1 45.1588 -2.69934 -2.69934 
38 1 47.8176 -0.0405549 -2.69934 
39 1 47.8176 -2.69934 -0.0405549 
40 1 45.1588 -0.0405549 -0.0405549 
41 1 50.4764 -2.69934 -2.69934 
42 1 53.1351 -0.0405549 -2.69934 
43 1 53.1351 -2.69934 -0.0405549 
44 1 50.4764 -0.0405549 -0.0405549 
45 1 55.7939 -2.69934 -2.69934 
46 1 58.4527 -0.0405549 -2.69934 
47 1 58.4527 -2.69934 -0.0405549 
48 1 55.7939 -0.0405549 -0.0405549 
49 1 61.1115 -2.69934 -2.69934 
50 1 63.7703 -0.0405549 -2.69934 
51 1 63.7703 -2.69934 -0.0405549 
52 1 61.1115 -0.0405549 -0.0405549 
53 1 66.4291 -2.69934 -2.69934 
54 1 69.0878 -0.0405549 -2.69934 
55 1 69.0878 -2.69934 -0.0405549 
56 1 66.4291 -0.0405549 -0.0405549 
57 1 71.7466 -2.69934 -2.69934 
58 1 74.4054 -0.0405549 -2.69934 
59 1 74.4054 -2.69934 -0.0405549 
60 1 71.7466 -0.0405549 -0.0405549 
61 1 77.0642 -2.69934 -2.69934 
62 1 79.723 -0.0405549 -2.69934 
63 1 79.723 -2.69934 -0.0405549 
64 1 77.0642 -0.0405549 -0.0405549 
65 1 82.3818 -2.69934 -2.69934 
66 1 85.0406 -0.0405549 -2.69934 
67 1 85.0406 -2.69934 -0.0405549 
68 1 82.3818 -0.0405549 -0.0405549 
69 1 -2.69934 2.61823 -2.69934 
70 1 -0.0405549 5.27701 -2.69934 
71 1 -0.0405549 2.61823 -0.0405549 
72 1 -2.69934 5.27701 -0.0405549 
73 1 2.61823 2.61823 -2.69934 
74 1 5.27701 5.27701 -2.69934 
75 1 5.27701 2.61823 -0.0405549 
76 1 2.61823 5.27701 -0.0405549 
77 1 7.9358 2.61823 -2.69934 
78 1 10.5946 5.27701 -2.69934 
79 1 10.5946 2.61823 -0.0405549 
80 1 7.9358 5.27701 -0.0405549 
81 1 13.2534 2.61823 -2.69934 
82 1 15.9122 5.27701 -2.69934 
83 1 15.9122 2.61823 -0.0405549 
84 1 13.2534 5.27701 -0.0405549 
85 1 18.5709 2.61823 -2.69934 
86 1 21.2297 5.27701 -2.69934 
87 1 21.2297 2.61823 -0.0405549 
88 1 18.5709 5.27701 -0.0405549 
89 1 23.8885 2.61823 -2.69934 
90 1 26.5473 5.27701 -2.69934 
91 1 26.5473 2.61823 -0.0405549 
92 1 23.8885 5.27701 -0.0405549 
93 1 29.2061 2.61823 -2.69934 
94 1 31.8649 5.27701 -2.69934 
95 1 31.8649 2.61823 -0.0405549 
96 1 29.2061 5.27701 -0.0405549 
97 1 34.5236 2.61823 -2.69934 
98 1 37.1824 5.27701 -2.69934 
99 1 37.1824 2.61823 -0.0405549 
100 1 34.5236 5.27701 -0.0405549 
101 1 39.8412 2.61823 -2.69934 
102 1 42.5 5.27701 -2.69934 
103 1 42.5 2.61823 -0.0405549 
104 1 39.8412 5.27701 -0.0405549 
105 1 45.1588 2.61823 -2.69934 
106 1 47.8176 5.27701 -2.69934 
107 1 47.8176 2.61823 -0.0405549 
108 1 45.1588 5.27701 -0.0405549 
109 1 50.4764 2.61823 -2.69934 
110 1 53.1351 5.27701 -2.69934 
111 1 53.1351 2.61823 -0.0405549 
112 1 50.4764 5.27701 -0.0405549 
113 1 55.7939 2.61823 -2.69934 
114 1 58.4527 5.27701 -2.69934 
115 1 58.4527 2.61823 -0.0405549 
116 1 55.7939 5.27701 -0.0405549 
117 1 61.1115 2.61823 -2.69934 
118 1 63.7703 5.27701 -2.69934 
119 1 63.7703 2.61823 -0.0405549 
120 1 61.1115 5.27701 -0.0405549 
121 1 66.4291 2.61823 -2.69934 
122 1 69.0878 5.27701 -2.69934 
123 1 69.0878 2.61823 -0.0405549 
124 1 66.4291 5.27701 -0.0405549 
125 1 71.7466 2.61823 -2.69934 
126 1 74.4054 5.27701 -2.69934 
127 1 74.4054 2.61823 -0.0405549 
128 1 71.7466 5.27701 -0.0405549 
129 1 77.0642 2.61823 -2.69934 
130 1 79.723 5.27701 -2.69934 
131 1 79.723 2.61823 -0.0405549 
132 1 77.0642 5.27701 -0.0405549 
133 1 82.3818 2.61823 -2.69934 
134 1 85.0406 5.27701 -2.69934 
135 1 85.0406 2.61823 -0.0405549 
136 1 82.3818 5.27701 -0.0405549 
137 1 -2.69934 7.9358 -2.69934 
138 1 -0.0405549 10.5946 -2.69934 
139 1 -0.0405549 7.9358 -0.0405549 
140 1 -2.69934 10.5946 -0.0405549 
141 1 2.61823 7.9358 -2.69934 
142 1 5.27701 10.5946 -2.69934 
143 1 5.27701 7.9358 -0.0405549 
144 1 2.61823 10.5946 -0.0405549 
145 1 7.9358 7.9358 -2.69934 
146 1 10.5946 10.5946 -2.69934 
147 1 10.5946 7.9358 -0.0405549 
148 1 7.9358 10.5946 -0.0405549 
149 1 13.2534 7.9358 -2.69934 
150 1 15.9122 10.5946 -2.69934 
151 1 15.9122 7.9358 -0.0405549 
152 1 13.2534 10.5946 -0.0405549 
153 1 18.5709 7.9358 -2.69934 
154 1 21.2297 10.5946 -2.69934 
155 1 21.2297 7.9358 -0.0405549 
156 1 18.5709 10.5946 -0.0405549 
157 1 23.8885 7.9358 -2.69934 
158 1 26.5473 10.5946 -2.69934 
159 1 26.5473 7.9358 -0.0405549 
160 1 23.8885 10.5946 -0.0405549 
161 1 29.2061 7.9358 -2.69934 
162 1 31.8649 10.5946 -2.69934 
163 1 31.8649 7.9358 -0.0405549 
164 1 29.2061 10.5946 -0.0405549 
165 1 34.5236 7.9358 -2.69934 
166 1 37.1824 10.5946 -2.69934 
167 1 37.1824 7.9358 -0.0405549 
168 1 34.5236 10.5946 -0.0405549 
169 1 39.8412 7.9358 -2.69934 
170 1 42.5 10.5946 -2.69934 
171 1 42.5 7.9358 -0.0405549 
172 1 39.8412 10.5946 -0.0405549 
173 1 45.1588 7.9358 -2.69934 
174 1 47.8176 10.5946 -2.69934 
175 1 47.8176 7.9358 -0.0405549 
176 1 45.1588 10.5946 -0.0405549 
177 1 50.4764 7.9358 -2.69934 
178 1 53.1351 10.5946 -2.69934 
179 1 53.1351 7.9358 -0.0405549 
180 1 50.4764 10.5946 -0.0405549 
181 1 55.7939 7.9358 -2.69934 
182 1 58.4527 10.5946 -2.69934 
183 1 58.4527 7.9358 -0.0405549 
184 1 55.7939 10.5946 -0.0405549 
185 1 61.1115 7.9358 -2.69934 
186 1 63.7703 10.5946 -2.69934 
187 1 63.7703 7.9358 -0.0405549 
188 1 61.1115 10.5946 -0.0405549 
189 1 66.4291 7.9358 -2.69934 
190 1 69.0878 10.5946 -2.69934 
191 1 69.0878 7.9358 -0.0405549 
192 1 66.4291 10.5946 -0.0405549 
193 1 71.7466 7.9358 -2.69934 
194 1 74.4054 10.5946 -2.69934 
195 1 74.4054 7.9358 -0.0405549 
196 1 71.7466 10.5946 -0.0405549 
197 1 77.0642 7.9358 -2.69934 
198 1 79.723 10.5946 -2.69934 
199 1 79.723 7.9358 -0.0405549 
200 1 77.0642 10.5946 -0.0405549 
201 1 82.3818 7.9358 -2.69934 
202 1 85.0406 10.5946 -2.69934 
203 1 85.0406 7.9358 -0.0405549 
204 1 82.3818 10.5946 -0.0405549 
205 1 -2.69934 13.2534 -2.69934 
206 1 -0.0405549 15.9122 -2.69934 
207 1 -0.0405549 13.2534 -0.0405549 
208 1 -2.69934 15.9122 -0.0405549 
209 1 2.61823 13.2534 -2.69934 
210 1 5.27701 15.9122 -2.69934 
211 1 5.27701 13.2534 -0.0405549 
212 1 2.61823 15.9122 -0.0405549 
213 1 7.9358 13.2534 -2.69934 
214 1 10.5946 15.9122 -2.69934 
215 1 10.5946 13.2534 -0.0405549 
216 1 7.9358 15.9122 -0.0405549 
217 1 13.2534 13.2534 -2.69934 
218 1 15.9122 15.9122 -2.69934 
219 1 15.9122 13.2534 -0.0405549 
220 1 13.2534 15.9122 -0.0405549 
221 1 18.5709 13.2534 -2.69934 
222 1 21.2297 15.9122 -2.69934 
223 1 21.2297 13.2534 -0.0405549 
224 1 18.5709 15.9122 -0.0405549 
225 1 23.8885 13.2534 -2.69934 
226 1 26.5473 15.9122 -2.69934 
227 1 26.5473 13.2534 -0.0405549 
228 1 23.8885 15.9122 -0.0405549 
229 1 29.2061 13.2534 -2.69934 
230 1 31.8649 15.9122 -2.69934 
231 1 31.8649 13.2534 -0.0405549 
232 1 29.2061 15.9122 -0.0405549 
233 1 34.5236 13.2534 -2.69934 
234 1 37.1824 15.9122 -2.69934 
235 1 37.1824 13.2534 -0.0405549 
236 1 34.5236 15.9122 -0.0405549 
237 1 39.8412 13.2534 -2.69934 
238 1 42.5 15.9122 -2.69934 
239 1 42.5 13.2534 -0.0405549 
240 1 39.8412 15.9122 -0.0405549 
241 1 45.1588 13.2534 -2.69934 
242 1 47.8176 15.9122 -2.69934 
243 1 47.8176 13.2534 -0.0405549 
244 1 45.1588 15.9122 -0.0405549 
245 1 50.4764 13.2534 -2.69934 
246 1 53.1351 15.9122 -2.69934 
247 1 53.1351 13.2534 -0.0405549 
248 1 50.4764 15.9122 -0.0405549 
249 1 55.7939 13.2534 -2.69934 
250 1 58.4527 15.9122 -2.69934 
251 1 58.4527 13.2534 -0.0405549 
252 1 55.7939 15.9122 -0.0405549 
253 1 61.1115 13.2534 -2.69934 
254 1 63.7703 15.9122 -2.69934 
255 1 63.7703 13.2534 -0.0405549 
256 1 61.1115 15.9122 -0.0405549 
257 1 66.4291 13.2534 -2.69934 
258 1 69.0878 15.9122 -2.69934 
259 1 69.0878 13.2534 -0.0405549 
260 1 66.4291 15.9122 -0.0405549 
261 1 71.7466 13.2534 -2.69934 
262 1 74.4054 15.9122 -2.69934 
263 1 74.4054 13.2534 -0.0405549 
264 1 71.7466 15.9122 -0.0405549 
265 1 77.0642 13.2534 -2.69934 
266 1 79.723 15.9122 -2.69934 
267 1 79.723 13.2534 -0.0405549 
268 1 77.0642 15.9122 -0.0405549 
269 1 82.3818 13.2534 -2.69934 
270 1 85.0406 15.9122 -2.69934 
271 1 85.0406 13.2534 -0.0405549 
272 1 82.3818 15.9122 -0.0405549 
273 1 -2.69934 18.5709 -2.69934 
274 1 -0.0405549 21.2297 -2.69934 
275 1 -0.0405549 18.5709 -0.0405549 
276 1 -2.69934 21.2297 -0.0405549 
277 1 2.61823 18.5709 -2.69934 
278 1 5.27701 21.2297 -2.69934 
279 1 5.27701 18.5709 -0.0405549 
280 1 2.61823 21.2297 -0.0405549 
281 1 7.9358 18.5709 -2.69934 
282 1 10.5946 21.2297 -2.69934 
283 1 10.5946 18.5709 -0.0405549 
284 1 7.9358 21.2297 -0.0405549 
285 1 13.2534 18.5709 -2.69934 
286 1 15.9122 21.2297 -2.69934 
287 1 15.9122 18.5709 -0.0405549 
288 1 13.2534 21.2297 -0.0405549 
289 1 18.5709 18.5709 -2.69934 
290 1 21.2297 21.2297 -2.69934 
291 1 21.2297 18.5709 -0.0405549 
292 1 18.5709 21.2297 -0.0405549 
293 1 23.8885 18.5709 -2.69934 
294 1 26.5473 21.2297 -2.69934 
295 1 26.5473 18.5709 -0.0405549 
296 1 23.8885 21.2297 -0.0405549 
297 1 29.2061 18.5709 -2.69934 
298 1 31.8649 21.2297 -2.69934 
299 1 31.8649 18.5709 -0.0405549 
300 1 29.2061 21.2297 -0.0405549 
301 1 34.5236 18.5709 -2.69934 
302 1 37.1824 21.2297 -2.69934 
303 1 37.1824 18.5709 -0.0405549 
304 1 34.5236 21.2297 -0.0405549 
305 1 39.8412 18.5709 -2.69934 
306 1 42.5 21.2297 -2.69934 
307 1 42.5 18.5709 -0.0405549 
308 1 39.8412 21.2297 -0.0405549 
309 1 45.1588 18.5709 -2.69934 
310 1 47.8176 21.2297 -2.69934 
311 1 47.8176 18.5709 -0.0405549 
312 1 45.1588 21.2297 -0.0405549 
313 1 50.4764 18.5709 -2.69934 
314 1 53.1351 21.2297 -2.69934 
315 1 53.1351 18.5709 -0.0405549 
316 1 50.4764 21.2297 -0.0405549 
317 1 55.7939 18.5709 -2.69934 
318 1 58.4527 21.2297 -2.69934 
319 1 58.4527 18.5709 -0.0405549 
320 1 55.7939 21.2297 -0.0405549 
321 1 61.1115 18.5709 -2.69934 
322 1 63.7703 21.2297 -2.69934 
323 1 63.7703 18.5709 -0.0405549 
324 1 61.1115 21.2297 -0.0405549 
325 1 66.4291 18.5709 -2.69934 
326 1 69.0878 21.2297 -2.69934 
327 1 69.0878 18.5709 -0.0405549 
328 1 66.4291 21.2297 -0.0405549 
329 1 71.7466 18.5709 -2.69934 
330 1 74.4054 21.2297 -2.69934 
331 1 74.4054 18.5709 -0.0405549 
332 1 71.7466 21.2297 -0.0405549 
333 1 77.0642 18.5709 -2.69934 
334 1 79.723 21.2297 -2.69934 
335 1 79.723 18.5709 -0.0405549 
336 1 77.0642 21.2297 -0.0405549 
337 1 82.3818 18.5709 -2.69934 
338 1 85.0406 21.2297 -2.69934 
339 1 85.0406 18.5709 -0.0405549 
340 1 82.3818 21.2297 -0.0405549 
341 1 -2.69934 23.8885 -2.69934 
342 1 -0.0405549 26.5473 -2.69934 
343 1 -0.0405549 23.8885 -0.0405549 
344 1 -2.69934 26.5473 -0.0405549 
345 1 2.61823 23.8885 -2.69934 
346 1 5.27701 26.5473 -2.69934 
347 1 5.27701 23.8885 -0.0405549 
348 1 2.61823 26.5473 -0.0405549 
349 1 7.9358 23.8885 -2.69934 
350 1 10.5946 26.5473 -2.69934 
351 1 10.5946 23.8885 -0.0405549 
352 1 7.9358 26.5473 -0.0405549 
353 1 13.2534 23.8885 -2.69934 
354 1 15.9122 26.5473 -2.69934 
355 1 15.9122 23.8885 -0.0405549 
356 1 13.2534 26.5473 -0.0405549 
357 1 18.5709 23.8885 -2.69934 
358 1 21.2297 26.5473 -2.69934 
359 1 21.2297 23.8885 -0.0405549 
360 1 18.5709 26.5473 -0.0405549 
361 1 23.8885 23.8885 -2.69934 
362 1 26.5473 26.5473 -2.69934 
363 1 26.5473 23.8885 -0.0405549 
364 1 23.8885 26.5473 -0.0405549 
365 1 29.2061 23.8885 -2.69934 
366 1 31.8649 26.5473 -2.69934 
367 1 31.8649 23.8885 -0.0405549 
368 1 29.2061 26.5473 -0.0405549 
369 1 34.5236 23.8885 -2.69934 
370 1 37.1824 26.5473 -2.69934 
371 1 37.1824 23.8885 -0.0405549 
372 1 34.5236 26.5473 -0.0405549 
373 1 39.8412 23.8885 -2.69934 
374 1 42.5 26.5473 -2.69934 
375 1 42.5 23.8885 -0.0405549 
376 1 39.8412 26.5473 -0.0405549 
377 1 45.1588 23.8885 -2.69934 
378 1 47.8176 26.5473 -2.69934 
379 1 47.8176 23.8885 -0.0405549 
380 1 45.1588 26.5473 -0.0405549 
381 1 50.4764 23.8885 -2.69934 
382 1 53.1351 26.5473 -2.69934 
383 1 53.1351 23.8885 -0.0405549 
384 1 50.4764 26.5473 -0.0405549 
385 1 55.7939 23.8885 -2.69934 
386 1 58.4527 26.5473 -2.69934 
387 1 58.4527 23.8885 -0.0405549 
388 1 55.7939 26.5473 -0.0405549 
389 1 61.1115 23.8885 -2.69934 
390 1 63.7703 26.5473 -2.69934 
391 1 63.7703 23.8885 -0.0405549 
392 1 61.1115 26.5473 -0.0405549 
393 1 66.4291 23.8885 -2.69934 
394 1 69.0878 26.5473 -2.69934 
395 1 69.0878 23.8885 -0.0405549 
396 1 66.4291 26.5473 -0.0405549 
397 1 71.7466 23.8885 -2.69934 
398 1 74.4054 26.5473 -2.69934 
399 1 74.4054 23.8885 -0.0405549 
400 1 71.7466 26.5473 -0.0405549 
401 1 77.0642 23.8885 -2.69934 
402 1 79.723 26.5473 -2.69934 
403 1 79.723 23.8885 -0.0405549 
404 1 77.0642 26.5473 -0.0405549 
405 1 82.3818 23.8885 -2.69934 
406 1 85.0406 26.5473 -2.69934 
407 1 85.0406 23.8885 -0.0405549 
408 1 82.3818 26.5473 -0.0405549 
409 1 -2.69934 29.2061 -2.69934 
410 1 -0.0405549 31.8649 -2.69934 
411 1 -0.0405549 29.2061 -0.0405549 
412 1 -2.69934 31.8649 -0.0405549 
413 1 2.61823 29.2061 -2.69934 
414 1 5.27701 31.8649 -2.69934 
415 1 5.27701 29.2061 -0.0405549 
416 1 2.61823 31.8649 -0.0405549 
417 1 7.9358 29.2061 -2.69934 
418 1 10.5946 31.8649 -2.69934 
419 1 10.5946 29.2061 -0.0405549 
420 1 7.9358 31.8649 -0.0405549 
421 1 13.2534 29.2061 -2.69934 
422 1 15.9122 31.8649 -2.69934 
423 1 15.9122 29.2061 -0.0405549 
424 1 13.2534 31.8649 -0.0405549 
425 1 18.5709 29.2061 -2.69934 
426 1 21.2297 31.8649 -2.69934 
427 1 21.2297 29.2061 -0.0405549 
428 1 18.5709 31.8649 -0.0405549 
429 1 23.8885 29.2061 -2.69934 
430 1 26.5473 31.8649 -2.69934 
431 1 26.5473 29.2061 -0.0405549 
432 1 23.8885 31.8649 -0.0405549 
433 1 29.2061 29.2061 -2.69934 
434 1 31.8649 31.8649 -2.69934 
435 1 31.8649 29.2061 -0.0405549 
436 1 29.2061 31.8649 -0.0405549 
437 1 34.5236 29.2061 -2.69934 
438 1 37.1824 31.8649 -2.69934 
439 1 37.1824 29.2061 -0.0405549 
440 1 34.5236 31.8649 -0.0405549 
441 1 39.8412 29.2061 -2.69934 
442 1 42.5 31.8649 -2.69934 
443 1 42.5 29.2061 -0.0405549 
444 1 39.8412 31.8649 -0.0405549 
445 1 45.1588 29.2061 -2.69934 
446 1 47.8176 31.8649 -2.69934 
447 1 47.8176 29.2061 -0.0405549 
448 1 45.1588 31.8649 -0.0405549 
449 1 50.4764 29.2061 -2.69934 
450 1 53.1351 31.8649 -2.69934 
451 1 53.1351 29.2061 -0.0405549 
452 1 50.4764 31.8649 -0.0405549 
453 1 55.7939 29.2061 -2.69934 
454 1 58.4527 31.8649 -2.69934 
455 1 58.4527 29.2061 -0.0405549 
456 1 55.7939 31.8649 -0.0405549 
457 1 61.1115 29.2061 -2.69934 
458 1 63.7703 31.8649 -2.69934 
459 1 63.7703 29.2061 -0.0405549 
460 1 61.1115 31.8649 -0.0405549 
461 1 66.4291 29.2061 -2.69934 
462 1 69.0878 31.8649 -2.69934 
463 1 69.0878 29.2061 -0.0405549 
464 1 66.4291 31.8649 -0.0405549 
465 1 71.7466 29.2061 -2.69934 
466 1 74.4054 31.8649 -2.69934 
467 1 74.4054 29.2061 -0.0405549 
468 1 71.7466 31.8649 -0.0405549 
469 1 77.0642 29.2061 -2.69934 
470 1 79.723 31.8649 -2.69934 
471 1 79.723 29.2061 -0.0405549 
472 1 77.0642 31.8649 -0.0405549 
473 1 82.3818 29.2061 -2.69934 
474 1 85.0406 31.8649 -2.69934 
475 1 85.0406 29.2061 -0.0405549 
476 1 82.3818 31.8649 -0.0405549 
477 1 -2.69934 34.5236 -2.69934 
478 1 -0.0405549 37.1824 -2.69934 
479 1 -0.0405549 34.5236 -0.0405549 
480 1 -2.69934 37.1824 -0.0405549 
481 1 2.61823 34.5236 -2.69934 
482 1 5.27701 37.1824 -2.69934 
483 1 5.27701 34.5236 -0.0405549 
484 1 2.61823 37.1824 -0.0405549 
485 1 7.9358 34.5236 -2.69934 
486 1 10.5946 37.1824 -2.69934 
487 1 10.5946 34.5236 -0.0405549 
488 1 7.9358 37.1824 -0.0405549 
489 1 13.2534 34.5236 -2.69934 
490 1 15.9122 37.1824 -2.69934 
491 1 15.9122 34.5236 -0.0405549 
492 1 13.2534 37.1824 -0.0405549 
493 1 18.5709 34.5236 -2.69934 
494 1 21.2297 37.1824 -2.69934 
495 1 21.2297 34.5236 -0.0405549 
496 1 18.5709 37.1824 -0.0405549 
497 1 23.8885 34.5236 -2.69934 
498 1 26.5473 37.1824 -2.69934 
499 1 26.5473 34.5236 -0.0405549 
500 1 23.8885 37.1824 -0.0405549 
501 1 29.2061 34.5236 -2.69934 
502 1 31.8649 37.1824 -2.69934 
503 1 31.8649 34.5236 -0.0405549 
504 1 29.2061 37.1824 -0.0405549 
505 1 34.5236 34.5236 -2.69934 
506 1 37.1824 37.1824 -2.69934 
507 1 37.1824 34.5236 -0.0405549 
508 1 34.5236 37.1824 -0.0405549 
509 1 39.8412 34.5236 -2.69934 
510 1 42.5 37.1824 -2.69934 
511 1 42.5 34.5236 -0.0405549 
512 1 39.8412 37.1824 -0.0405549 
513 1 45.1588 34.5236 -2.69934 
514 1 47.8176 37.1824 -2.69934 
515 1 47.8176 34.5236 -0.0405549 
516 1 45.1588 37.1824 -0.0405549 
517 1 50.4764 34.5236 -2.69934 
518 1 53.1351 37.1824 -2.69934 
519 1 53.1351 34.5236 -0.0405549 
520 1 50.4764 37.1824 -0.0405549 
521 1 55.7939 34.5236 -2.69934 
522 1 58.4527 37.1824 -2.69934 
523 1 58.4527 34.5236 -0.0405549 
524 1 55.7939 37.1824 -0.0405549 
525 1 61.1115 34.5236 -2.69934 
526 1 63.7703 37.1824 -2.69934 
527 1 63.7703 34.5236 -0.0405549 
528 1 61.1115 37.1824 -0.0405549 
529 1 66.4291 34.5236 -2.69934 
530 1 69.0878 37.1824 -2.69934 
531 1 69.0878 34.5236 -0.0405549 
532 1 66.4291 37.1824 -0.0405549 
533 1 71.7466 34.5236 -2.69934 
534 1 74.4054 37.1824 -2.69934 
535 1 74.4054 34.5236 -0.0405549 
536 1 71.7466 37.1824 -0.0405549 
537 1 77.0642 34.5236 -2.69934 
538 1 79.723 37.1824 -2.69934 
539 1 79.723 34.5236 -0.0405549 
540 1 77.0642 37.1824 -0.0405549 
541 1 82.3818 34.5236 -2.69934 
542 1 85.0406 37.1824 -2.69934 
543 1 85.0406 34.5236 -0.0405549 
544 1 82.3818 37.1824 -0.0405549 
545 1 -2.69934 39.8412 -2.69934 
546 1 -0.0405549 42.5 -2.69934 
547 1 -0.0405549 39.8412 -0.0405549 
548 1 -2.69934 42.5 -0.0405549 
549 1 2.61823 39.8412 -2.69934 
550 1 5.27701 42.5 -2.69934 
551 1 5.27701 39.8412 -0.0405549 
552 1 2.61823 42.5 -0.0405549 
553 1 7.9358 39.8412 -2.69934 
554 1 10.5946 42.5 -2.69934 
555 1 10.5946 39.8412 -0.0405549 
556 1 7.9358 42.5 -0.0405549 
557 1 13.2534 39.8412 -2.69934 
558 1 15.9122 42.5 -2.69934 
559 1 15.9122 39.8412 -0.0405549 
560 1 13.2534 42.5 -0.0405549 
561 1 18.5709 39.8412 -2.69934 
562 1 21.2297 42.5 -2.69934 
563 1 21.2297 39.8412 -0.0405549 
564 1 18.5709 42.5 -0.0405549 
565 1 23.8885 39.8412 -2.69934 
566 1 26.5473 42.5 -2.69934 
567 1 26.5473 39.8412 -0.0405549 
568 1 23.8885 42.5 -0.0405549 
569 1 29.2061 39.8412 -2.69934 
570 1 31.8649 42.5 -2.69934 
571 1 31.8649 39.8412 -0.0405549 
572 1 29.2061 42.5 -0.0405549 
573 1 34.5236 39.8412 -2.69934 
574 1 37.1824 42.5 -2.69934 
575 1 37.1824 39.8412 -0.0405549 
576 1 34.5236 42.5 -0.0405549 
577 1 39.8412 39.8412 -2.69934 
578 1 42.5 42.5 -2.69934 
579 1 42.5 39.8412 -0.0405549 
580 1 39.8412 42.5 -0.0405549 
581 1 45.1588 39.8412 -2.69934 
582 1 47.8176 42.5 -2.69934 
583 1 47.8176 39.8412 -0.0405549 
584 1 45.1588 42.5 -0.0405549 
585 1 50.4764 39.8412 -2.69934 
586 1 53.1351 42.5 -2.69934 
587 1 53.1351 39.8412 -0.0405549 
588 1 50.4764 42.5 -0.0405549 
589 1 55.7939 39.8412 -2.69934 
590 1 58.4527 42.5 -2.69934 
591 1 58.4527 39.8412 -0.0405549 
592 1 55.7939 42.5 -0.0405549 
593 1 61.1115 39.8412 -2.69934 
594 1 63.7703 42.5 -2.69934 
595 1 63.7703 39.8412 -0.0405549 
596 1 61.1115 42.5 -0.0405549 
597 1 66.4291 39.8412 -2.69934 
598 1 69.0878 42.5 -2.69934 
599 1 69.0878 39.8412 -0.0405549 
600 1 66.4291 42.5 -0.0405549 
601 1 71.7466 39.8412 -2.69934 
602 1 74.4054 42.5 -2.69934 
603 1 74.4054 39.8412 -0.0405549 
604 1 71.7466 42.5 -0.0405549 
605 1 77.0642 39.8412 -2.69934 
606 1 79.723 42.5 -2.69934 
607 1 79.723 39.8412 -0.0405549 
608 1 77.0642 42.5 -0.0405549 
609 1 82.3818 39.8412 -2.69934 
610 1 85.0406 42.5 -2.69934 
611 1 85.0406 39.8412 -0.0405549 
612 1 82.3818 42.5 -0.0405549 
613 1 -2.69934 45.1588 -2.69934 
614 1 -0.0405549 47.8176 -2.69934 
615 1 -0.0405549 45.1588 -0.0405549 
616 1 -2.69934 47.8176 -0.0405549 
617 1 2.61823 45.1588 -2.69934 
618 1 5.27701 47.8176 -2.69934 
619 1 5.27701 45.1588 -0.0405549 
620 1 2.61823 47.8176 -0.0405549 
621 1 7.9358 45.1588 -2.69934 
622 1 10.5946 47.8176 -2.69934 
623 1 10.5946 45.1588 -0.0405549 
624 1 7.9358 47.8176 -0.0405549 
625 1 13.2534 45.1588 -2.69934 
626 1 15.9122 47.8176 -2.69934 
627 1 15.9122 45.1588 -0.0405549 
628 1 13.2534 47.8176 -0.0405549 
629 1 18.5709 45.1588 -2.69934 
630 1 21.2297 47.8176 -2.69934 
631 1 21.2297 45.1588 -0.0405549 
632 1 18.5709 47.8176 -0.0405549 
633 1 23.8885 45.1588 -2.69934 
634 1 26.5473 47.8176 -2.69934 
635 1 26.5473 45.1588 -0.0405549 
636 1 23.8885 47.8176 -0.0405549 
637 1 29.2061 45.1588 -2.69934 
638 1 31.8649 47.8176 -2.69934 
639 1 31.8649 45.1588 -0.0405549 
640 1 29.2061 47.8176 -0.0405549 
641 1 34.5236 45.1588 -2.69934 
642 1 37.1824 47.8176 -2.69934 
643 1 37.1824 45.1588 -0.0405549 
644 1 34.5236 47.8176 -0.0405549 
645 1 39.8412 45.1588 -2.69934 
646 1 42.5 47.8176 -2.69934 
647 1 42.5 45.1588 -0.0405549 
648 1 39.8412 47.8176 -0.0405549 
649 1 45.1588 45.1588 -2.69934 
650 1 47.8176 47.8176 -2.69934 
651 1 47.8176 45.1588 -0.0405549 
652 1 45.1588 47.8176 -0.0405549 
653 1 50.4764 45.1588 -2.69934 
654 1 53.1351 47.8176 -2.69934 
655 1 53.1351 45.1588 -0.0405549 
656 1 50.4764 47.8176 -0.0405549 
657 1 55.7939 45.1588 -2.69934 
658 1 58.4527 47.8176 -2.69934 
659 1 58.4527 45.1588 -0.0405549 
660 1 55.7939 47.8176 -0.0405549 
661 1 61.1115 45.1588 -2.69934 
662 1 63.7703 47.8176 -2.69934 
663 1 63.7703 45.1588 -0.0405549 
664 1 61.1115 47.8176 -0.0405549 
665 1 66.4291 45.1588 -2.69934 
666 1 69.0878 47.8176 -2.69934 
667 1 69.0878 45.1588 -0.0405549 
668 1 66.4291 47.8176 -0.0405549 
669 1 71.7466 45.1588 -2.69934 
670 1 74.4054 47.8176 -2.69934 
671 1 74.4054 45.1588 -0.0405549 
672 1 71.7466 47.8176 -0.0405549 
673 1 77.0642 45.1588 -2.69934 
674 1 79.723 47.8176 -2.69934 
675 1 79.723 45.1588 -0.0405549 
676 1 77.0642 47.8176 -0.0405549 
677 1 82.3818 45.1588 -2.69934 
678 1 85.0406 47.8176 -2.69934 
679 1 85.0406 45.1588 -0.0405549 
680 1 82.3818 47.8176 -0.0405549 
681 1 -2.69934 50.4764 -2.69934 
682 1 -0.0405549 53.1351 -2.69934 
683 1 -0.0405549 50.4764 -0.0405549 
684 1 -2.69934 53.1351 -0.0405549 
685 1 2.61823 50.4764 -2.69934 
686 1 5.27701 53.1351 -2.69934 
687 1 5.27701 50.4764 -0.0405549 
688 1 2.61823 53.1351 -0.0405549 
689 1 7.9358 50.4764 -2.69934 
690 1 10.5946 53.1351 -2.69934 
691 1 10.5946 50.4764 -0.0405549 
692 1 7.9358 53.1351 -0.0405549 
693 1 13.2534 50.4764 -2.69934 
694 1 15.9122 53.1351 -2.69934 
695 1 15.9122 50.4764 -0.0405549 
696 1 13.2534 53.1351 -0.0405549 
697 1 18.5709 50.4764 -2.69934 
698 1 21.2297 53.1351 -2.69934 
699 1 21.2297 50.4764 -0.0405549 
700 1 18.5709 53.1351 -0.0405549 
701 1 23.8885 50.4764 -2.69934 
702 1 26.5473 53.1351 -2.69934 
703 1 26.5473 50.4764 -0.0405549 
704 1 23.8885 53.1351 -0.0405549 
705 1 29.2061 50.4764 -2.69934 
706 1 31.8649 53.1351 -2.69934 
707 1 31.8649 50.4764 -0.0405549 
708 1 29.2061 53.1351 -0.0405549 
709 1 34.5236 50.4764 -2.69934 
710 1 37.1824 53.1351 -2.69934 
711 1 37.1824 50.4764 -0.0405549 
712 1 34.5236 53.1351 -0.0405549 
713 1 39.8412 50.4764 -2.69934 
714 1 42.5 53.1351 -2.69934 
715 1 42.5 50.4764 -0.0405549 
716 1 39.8412 53.1351 -0.0405549 
717 1 45.1588 50.4764 -2.69934 
718 1 47.8176 53.1351 -2.69934 
719 1 47.8176 50.4764 -0.0405549 
720 1 45.1588 53.1351 -0.0405549 
721 1 50.4764 50.4764 -2.69934 
722 1 53.1351 53.1351 -2.69934 
723 1 53.1351 50.4764 -0.0405549 
724 1 50.4764 53.1351 -0.0405549 
725 1 55.7939 50.4764 -2.69934 
726 1 58.4527 53.1351 -2.69934 
727 1 58.4527 50.4764 -0.0405549 
728 1 55.7939 53.1351 -0.0405549 
729 1 61.1115 50.4764 -2.69934 
730 1 63.7703 53.1351 -2.69934 
731 1 63.7703 50.4764 -0.0405549 
732 1 61.1115 53.1351 -0.0405549 
733 1 66.4291 50.4764 -2.69934 
734 1 69.0878 53.1351 -2.69934 
735 1 69.0878 50.4764 -0.0405549 
736 1 66.4291 53.1351 -0.0405549 
737 1 71.7466 50.4764 -2.69934 
738 1 74.4054 53.1351 -2.69934 
739 1 74.4054 50.4764 -0.0405549 
740 1 71.7466 53.1351 -0.0405549 
741 1 77.0642 50.4764 -2.69934 
742 1 79.723 53.1351 -2.69934 
743 1 79.723 50.4764 -0.0405549 
744 1 77.0642 53.1351 -0.0405549 
745 1 82.3818 50.4764 -2.69934 
746 1 85.0406 53.1351 -2.69934 
747 1 85.0406 50.4764 -0.0405549 
748 1 82.3818 53.1351 -0.0405549 
749 1 -2.69934 55.7939 -2.69934 
750 1 -0.0405549 58.4527 -2.69934 
751 1 -0.0405549 55.7939 -0.0405549 
752 1 -2.69934 58.4527 -0.0405549 
753 1 2.61823 55.7939 -2.69934 
754 1 5.27701 58.4527 -2.69934 
755 1 5.27701 55.7939 -0.0405549 
756 1 2.61823 58.4527 -0.0405549 
757 1 7.9358 55.7939 -2.69934 
758 1 10.5946 58.4527 -2.69934 
759 1 10.5946 55.7939 -0.0405549 
760 1 7.9358 58.4527 -0.0405549 
761 1 13.2534 55.7939 -2.69934 
762 1 15.9122 58.4527 -2.69934 
763 1 15.9122 55.7939 -0.0405549 
764 1 13.2534 58.4527 -0.0405549 
765 1 18.5709 55.7939 -2.69934 
766 1 21.2297 58.4527 -2.69934 
767 1 21.2297 55.7939 -0.0405549 
768 1 18.5709 58.4527 -0.0405549 
769 1 23.8885 55.7939 -2.69934 
770 1 26.5473 58.4527 -2.69934 
771 1 26.5473 55.7939 -0.0405549 
772 1 23.8885 58.4527 -0.0405549 
773 1 29.2061 55.7939 -2.69934 
774 1 31.8649 58.4527 -2.69934 
775 1 31.8649 55.7939 -0.0405549 
776 1 29.2061 58.4527 -0.0405549 
777 1 34.5236 55.7939 -2.69934 
778 1 37.1824 58.4527 -2.69934 
779 1 37.1824 55.7939 -0.0405549 
780 1 34.5236 58.4527 -0.0405549 
781 1 39.8412 55.7939 -2.69934 
782 1 42.5 58.4527 -2.69934 
783 1 42.5 55.7939 -0.0405549 
784 1 39.8412 58.4527 -0.0405549 
785 1 45.1588 55.7939 -2.69934 
786 1 47.8176 58.4527 -2.69934 
787 1 47.8176 55.7939 -0.0405549 
788 1 45.1588 58.4527 -0.0405549 
789 1 50.4764 55.7939 -2.69934 
790 1 53.1351 58.4527 -2.69934 
791 1 53.1351 55.7939 -0.0405549 
792 1 50.4764 58.4527 -0.0405549 
793 1 55.7939 55.7939 -2.69934 
794 1 58.4527 58.4527 -2.69934 
795 1 58.4527 55.7939 -0.0405549 
796 1 55.7939 58.4527 -0.0405549 
797 1 61.1115 55.7939 -2.69934 
798 1 63.7703 58.4527 -2.69934 
799 1 63.7703 55.7939 -0.0405549 
800 1 61.1115 58.4527 -0.0405549 
801 1 66.4291 55.7939 -2.69934 
802 1 69.0878 58.4527 -2.69934 
803 1 69.0878 55.7939 -0.0405549 
804 1 66.4291 58.4527 -0.0405549 
805 1 71.7466 55.7939 -2.69934 
806 1 74.4054 58.4527 -2.69934 
807 1 74.4054 55.7939 -0.0405549 
808 1 71.7466 58.4527 -0.0405549 
809 1 77.0642 55.7939 -2.69934 
810 1 79.723 58.4527 -2.69934 
811 1 79.723 55.7939 -0.0405549 
812 1 77.0642 58.4527 -0.0405549 
813 1 82.3818 55.7939 -2.69934 
814 1 85.0406 58.4527 -2.69934 
815 1 85.0406 55.7939 -0.0405549 
816 1 82.3818 58.4527 -0.0405549 
817 1 -2.69934 61.1115 -2.69934 
818 1 -0.0405549 63.7703 -2.69934 
819 1 -0.0405549 61.1115 -0.0405549 
820 1 -2.69934 63.7703 -0.0405549 
821 1 2.61823 61.1115 -2.69934 
822 1 5.27701 63.7703 -2.69934 
823 1 5.27701 61.1115 -0.0405549 
824 1 2.61823 63.7703 -0.0405549 
825 1 7.9358 61.1115 -2.69934 
826 1 10.5946 63.7703 -2.69934 
827 1 10.5946 61.1115 -0.0405549 
828 1 7.9358 63.7703 -0.0405549 
829 1 13.2534 61.1115 -2.69934 
830 1 15.9122 63.7703 -2.69934 
831 1 15.9122 61.1115 -0.0405549 
832 1 13.2534 63.7703 -0.0405549 
833 1 18.5709 61.1115 -2.69934 
834 1 21.2297 63.7703 -2.69934 
835 1 21.2297 61.1115 -0.0405549 
836 1 18.5709 63.7703 -0.0405549 
837 1 23.8885 61.1115 -2.69934 
838 1 26.5473 63.7703 -2.69934 
839 1 26.5473 61.1115 -0.0405549 
840 1 23.8885 63.7703 -0.0405549 
841 1 29.2061 61.1115 -2.69934 
842 1 31.8649 63.7703 -2.69934 
843 1 31.8649 61.1115 -0.0405549 
844 1 29.2061 63.7703 -0.0405549 
845 1 34.5236 61.1115 -2.69934 
846 1 37.1824 63.7703 -2.69934 
847 1 37.1824 61.1115 -0.0405549 
848 1 34.5236 63.7703 -0.0405549 
849 1 39.8412 61.1115 -2.69934 
850 1 42.5 63.7703 -2.69934 
851 1 42.5 61.1115 -0.0405549 
852 1 39.8412 63.7703 -0.0405549 
853 1 45.1588 61.1115 -2.69934 
854 1 47.8176 63.7703 -2.69934 
855 1 47.8176 61.1115 -0.0405549 
856 1 45.1588 63.7703 -0.0405549 
857 1 50.4764 61.1115 -2.69934 
858 1 53.1351 63.7703 -2.69934 
859 1 53.1351 61.1115 -0.0405549 
860 1 50.4764 63.7703 -0.0405549 
861 1 55.7939 61.1115 -2.69934 
862 1 58.4527 63.7703 -2.69934 
863 1 58.4527 61.1115 -0.0405549 
864 1 55.7939 63.7703 -0.0405549 
865 1 61.1115 61.1115 -2.69934 
866 1 63.7703 63.7703 -2.69934 
867 1 63.7703 61.1115 -0.0405549 
868 1 61.1115 63.7703 -0.0405549 
869 1 66.4291 61.1115 -2.69934 
870 1 69.0878 63.7703 -2.69934 
871 1 69.0878 61.1115 -0.0405549 
872 1 66.4291 63.7703 -0.0405549 
873 1 71.7466 61.1115 -2.69934 
874 1 74.4054 63.7703 -2.69934 
875 1 74.4054 61.1115 -0.0405549 
876 1 71.7466 63.7703 -0.0405549 
877 1 77.0642 61.1115 -2.69934 
878 1 79.723 63.7703 -2.69934 
879 1 79.723 61.1115 -0.0405549 
880 1 77.0642 63.7703 -0.0405549 
881 1 82.3818 61.1115 -2.69934 
882 1 85.0406 63.7703 -2.69934 
883 1 85.0406 61.1115 -0.0405549 
884 1 82.3818 63.7703 -0.0405549 
885 1 -2.69934 66.4291 -2.69934 
886 1 -0.0405549 69.0878 -2.69934 
887 1 -0.0405549 66.4291 -0.0405549 
888 1 -2.69934 69.0878 -0.0405549 
889 1 2.61823 66.4291 -2.69934 
890 1 5.27701 69.0878 -2.69934 
891 1 5.27701 66.4291 -0.0405549 
892 1 2.61823 69.0878 -0.0405549 
893 1 7.9358 66.4291 -2.69934 
894 1 10.5946 69.0878 -2.69934 
895 1 10.5946 66.4291 -0.0405549 
896 1 7.9358 69.0878 -0.0405549 
897 1 13.2534 66.4291 -2.69934 
898 1 15.9122 69.0878 -2.69934 
899 1 15.9122 66.4291 -0.0405549 
900 1 13.2534 69.0878 -0.0405549 
901 1 18.5709 66.4291 -2.69934 
902 1 21.2297 69.0878 -2.69934 
903 1 21.2297 66.4291 -0.0405549 
904 1 18.5709 69.0878 -0.0405549 
905 1 23.8885 66.4291 -2.69934 