ITEM: TIMESTEP
43
ITEM: NUMBER OF ATOMS
19652
ITEM: BOX BOUNDS pp pp pp
8.3450442958181927e+00 7.6654955704181603e+01
8.3450442958181927e+00 7.6654955704181603e+01
8.3450442958181927e+00 7.6654955704181603e+01
ITEM: ATOMS id type xu yu zu 
1 1 8.34504 8.34504 8.34504 
2 1 10.3542 10.3542 8.34504 
3 1 10.3542 8.34504 10.3542 
4 1 8.34504 10.3542 10.3542 
5 1 12.3633 8.34504 8.34504 
6 1 14.3724 10.3542 8.34504 
7 1 14.3724 8.34504 10.3542 
8 1 12.3633 10.3542 10.3542 
9 1 16.3815 8.34504 8.34504 
10 1 18.3906 10.3542 8.34504 
11 1 18.3906 8.34504 10.3542 
12 1 16.3815 10.3542 10.3542 
13 1 20.3997 8.34504 8.34504 
14 1 22.4088 10.3542 8.34504 
15 1 22.4088 8.34504 10.3542 
16 1 20.3997 10.3542 10.3542 
17 1 24.418 8.34504 8.34504 
18 1 26.4271 10.3542 8.34504 
19 1 26.4271 8.34504 10.3542 
20 1 24.418 10.3542 10.3542 
21 1 28.4362 8.34504 8.34504 
22 1 30.4453 10.3542 8.34504 
23 1 30.4453 8.34504 10.3542 
24 1 28.4362 10.3542 10.3542 
25 1 32.4544 8.34504 8.34504 
26 1 34.4635 10.3542 8.34504 
27 1 34.4635 8.34504 10.3542 
28 1 32.4544 10.3542 10.3542 
29 1 36.4727 8.34504 8.34504 
30 1 38.4818 10.3542 8.34504 
31 1 38.4818 8.34504 10.3542 
32 1 36.4727 10.3542 10.3542 
33 1 40.4909 8.34504 8.34504 
34 1 42.5 10.3542 8.34504 
35 1 42.5 8.34504 10.3542 
36 1 40.4909 10.3542 10.3542 
37 1 44.5091 8.34504 8.34504 
38 1 46.5182 10.3542 8.34504 
39 1 46.5182 8.34504 10.3542 
40 1 44.5091 10.3542 10.3542 
41 1 48.5273 8.34504 8.34504 
42 1 50.5365 10.3542 8.34504 
43 1 50.5365 8.34504 10.3542 
44 1 48.5273 10.3542 10.3542 
45 1 52.5456 8.34504 8.34504 
46 1 54.5547 10.3542 8.34504 
47 1 54.5547 8.34504 10.3542 
48 1 52.5456 10.3542 10.3542 
49 1 56.5638 8.34504 8.34504 
50 1 58.5729 10.3542 8.34504 
51 1 58.5729 8.34504 10.3542 
52 1 56.5638 10.3542 10.3542 
53 1 60.582 8.34504 8.34504 
54 1 62.5912 10.3542 8.34504 
55 1 62.5912 8.34504 10.3542 
56 1 60.582 10.3542 10.3542 
57 1 64.6003 8.34504 8.34504 
58 1 66.6094 10.3542 8.34504 
59 1 66.6094 8.34504 10.3542 
60 1 64.6003 10.3542 10.3542 
61 1 68.6185 8.34504 8.34504 
62 1 70.6276 10.3542 8.34504 
63 1 70.6276 8.34504 10.3542 
64 1 68.6185 10.3542 10.3542 
65 1 72.6367 8.34504 8.34504 
66 1 74.6458 10.3542 8.34504 
67 1 74.6458 8.34504 10.3542 
68 1 72.6367 10.3542 10.3542 
69 1 8.34504 12.3633 8.34504 
70 1 10.3542 14.3724 8.34504 
71 1 10.3542 12.3633 10.3542 
72 1 8.34504 14.3724 10.3542 
73 1 12.3633 12.3633 8.34504 
74 1 14.3724 14.3724 8.34504 
75 1 14.3724 12.3633 10.3542 
76 1 12.3633 14.3724 10.3542 
77 1 16.3815 12.3633 8.34504 
78 1 18.3906 14.3724 8.34504 
79 1 18.3906 12.3633 10.3542 
80 1 16.3815 14.3724 10.3542 
81 1 20.3997 12.3633 8.34504 
82 1 22.4088 14.3724 8.34504 
83 1 22.4088 12.3633 10.3542 
84 1 20.3997 14.3724 10.3542 
85 1 24.418 12.3633 8.34504 
86 1 26.4271 14.3724 8.34504 
87 1 26.4271 12.3633 10.3542 
88 1 24.418 14.3724 10.3542 
89 1 28.4362 12.3633 8.34504 
90 1 30.4453 14.3724 8.34504 
91 1 30.4453 12.3633 10.3542 
92 1 28.4362 14.3724 10.3542 
93 1 32.4544 12.3633 8.34504 
94 1 34.4635 14.3724 8.34504 
95 1 34.4635 12.3633 10.3542 
96 1 32.4544 14.3724 10.3542 
97 1 36.4727 12.3633 8.34504 
98 1 38.4818 14.3724 8.34504 
99 1 38.4818 12.3633 10.3542 
100 1 36.4727 14.3724 10.3542 
101 1 40.4909 12.3633 8.34504 
102 1 42.5 14.3724 8.34504 
103 1 42.5 12.3633 10.3542 
104 1 40.4909 14.3724 10.3542 
105 1 44.5091 12.3633 8.34504 
106 1 46.5182 14.3724 8.34504 
107 1 46.5182 12.3633 10.3542 
108 1 44.5091 14.3724 10.3542 
109 1 48.5273 12.3633 8.34504 
110 1 50.5365 14.3724 8.34504 
111 1 50.5365 12.3633 10.3542 
112 1 48.5273 14.3724 10.3542 
113 1 52.5456 12.3633 8.34504 
114 1 54.5547 14.3724 8.34504 
115 1 54.5547 12.3633 10.3542 
116 1 52.5456 14.3724 10.3542 
117 1 56.5638 12.3633 8.34504 
118 1 58.5729 14.3724 8.34504 
119 1 58.5729 12.3633 10.3542 
120 1 56.5638 14.3724 10.3542 
121 1 60.582 12.3633 8.34504 
122 1 62.5912 14.3724 8.34504 
123 1 62.5912 12.3633 10.3542 
124 1 60.582 14.3724 10.3542 
125 1 64.6003 12.3633 8.34504 
126 1 66.6094 14.3724 8.34504 
127 1 66.6094 12.3633 10.3542 
128 1 64.6003 14.3724 10.3542 
129 1 68.6185 12.3633 8.34504 
130 1 70.6276 14.3724 8.34504 
131 1 70.6276 12.3633 10.3542 
132 1 68.6185 14.3724 10.3542 
133 1 72.6367 12.3633 8.34504 
134 1 74.6458 14.3724 8.34504 
135 1 74.6458 12.3633 10.3542 
136 1 72.6367 14.3724 10.3542 
137 1 8.34504 16.3815 8.34504 
138 1 10.3542 18.3906 8.34504 
139 1 10.3542 16.3815 10.3542 
140 1 8.34504 18.3906 10.3542 
141 1 12.3633 16.3815 8.34504 
142 1 14.3724 18.3906 8.34504 
143 1 14.3724 16.3815 10.3542 
144 1 12.3633 18.3906 10.3542 
145 1 16.3815 16.3815 8.34504 
146 1 18.3906 18.3906 8.34504 
147 1 18.3906 16.3815 10.3542 
148 1 16.3815 18.3906 10.3542 
149 1 20.3997 16.3815 8.34504 
150 1 22.4088 18.3906 8.34504 
151 1 22.4088 16.3815 10.3542 
152 1 20.3997 18.3906 10.3542 
153 1 24.418 16.3815 8.34504 
154 1 26.4271 18.3906 8.34504 
155 1 26.4271 16.3815 10.3542 
156 1 24.418 18.3906 10.3542 
157 1 28.4362 16.3815 8.34504 
158 1 30.4453 18.3906 8.34504 
159 1 30.4453 16.3815 10.3542 
160 1 28.4362 18.3906 10.3542 
161 1 32.4544 16.3815 8.34504 
162 1 34.4635 18.3906 8.34504 
163 1 34.4635 16.3815 10.3542 
164 1 32.4544 18.3906 10.3542 
165 1 36.4727 16.3815 8.34504 
166 1 38.4818 18.3906 8.34504 
167 1 38.4818 16.3815 10.3542 
168 1 36.4727 18.3906 10.3542 
169 1 40.4909 16.3815 8.34504 
170 1 42.5 18.3906 8.34504 
171 1 42.5 16.3815 10.3542 
172 1 40.4909 18.3906 10.3542 
173 1 44.5091 16.3815 8.34504 
174 1 46.5182 18.3906 8.34504 
175 1 46.5182 16.3815 10.3542 
176 1 44.5091 18.3906 10.3542 
177 1 48.5273 16.3815 8.34504 
178 1 50.5365 18.3906 8.34504 
179 1 50.5365 16.3815 10.3542 
180 1 48.5273 18.3906 10.3542 
181 1 52.5456 16.3815 8.34504 
182 1 54.5547 18.3906 8.34504 
183 1 54.5547 16.3815 10.3542 
184 1 52.5456 18.3906 10.3542 
185 1 56.5638 16.3815 8.34504 
186 1 58.5729 18.3906 8.34504 
187 1 58.5729 16.3815 10.3542 
188 1 56.5638 18.3906 10.3542 
189 1 60.582 16.3815 8.34504 
190 1 62.5912 18.3906 8.34504 
191 1 62.5912 16.3815 10.3542 
192 1 60.582 18.3906 10.3542 
193 1 64.6003 16.3815 8.34504 
194 1 66.6094 18.3906 8.34504 
195 1 66.6094 16.3815 10.3542 
196 1 64.6003 18.3906 10.3542 
197 1 68.6185 16.3815 8.34504 
198 1 70.6276 18.3906 8.34504 
199 1 70.6276 16.3815 10.3542 
200 1 68.6185 18.3906 10.3542 
201 1 72.6367 16.3815 8.34504 
202 1 74.6458 18.3906 8.34504 
203 1 74.6458 16.3815 10.3542 
204 1 72.6367 18.3906 10.3542 
205 1 8.34504 20.3997 8.34504 
206 1 10.3542 22.4088 8.34504 
207 1 10.3542 20.3997 10.3542 
208 1 8.34504 22.4088 10.3542 
209 1 12.3633 20.3997 8.34504 
210 1 14.3724 22.4088 8.34504 
211 1 14.3724 20.3997 10.3542 
212 1 12.3633 22.4088 10.3542 
213 1 16.3815 20.3997 8.34504 
214 1 18.3906 22.4088 8.34504 
215 1 18.3906 20.3997 10.3542 
216 1 16.3815 22.4088 10.3542 
217 1 20.3997 20.3997 8.34504 
218 1 22.4088 22.4088 8.34504 
219 1 22.4088 20.3997 10.3542 
220 1 20.3997 22.4088 10.3542 
221 1 24.418 20.3997 8.34504 
222 1 26.4271 22.4088 8.34504 
223 1 26.4271 20.3997 10.3542 
224 1 24.418 22.4088 10.3542 
225 1 28.4362 20.3997 8.34504 
226 1 30.4453 22.4088 8.34504 
227 1 30.4453 20.3997 10.3542 
228 1 28.4362 22.4088 10.3542 
229 1 32.4544 20.3997 8.34504 
230 1 34.4635 22.4088 8.34504 
231 1 34.4635 20.3997 10.3542 
232 1 32.4544 22.4088 10.3542 
233 1 36.4727 20.3997 8.34504 
234 1 38.4818 22.4088 8.34504 
235 1 38.4818 20.3997 10.3542 
236 1 36.4727 22.4088 10.3542 
237 1 40.4909 20.3997 8.34504 
238 1 42.5 22.4088 8.34504 
239 1 42.5 20.3997 10.3542 
240 1 40.4909 22.4088 10.3542 
241 1 44.5091 20.3997 8.34504 
242 1 46.5182 22.4088 8.34504 
243 1 46.5182 20.3997 10.3542 
244 1 44.5091 22.4088 10.3542 
245 1 48.5273 20.3997 8.34504 
246 1 50.5365 22.4088 8.34504 
247 1 50.5365 20.3997 10.3542 
248 1 48.5273 22.4088 10.3542 
249 1 52.5456 20.3997 8.34504 
250 1 54.5547 22.4088 8.34504 
251 1 54.5547 20.3997 10.3542 
252 1 52.5456 22.4088 10.3542 
253 1 56.5638 20.3997 8.34504 
254 1 58.5729 22.4088 8.34504 
255 1 58.5729 20.3997 10.3542 
256 1 56.5638 22.4088 10.3542 
257 1 60.582 20.3997 8.34504 
258 1 62.5912 22.4088 8.34504 
259 1 62.5912 20.3997 10.3542 
260 1 60.582 22.4088 10.3542 
261 1 64.6003 20.3997 8.34504 
262 1 66.6094 22.4088 8.34504 
263 1 66.6094 20.3997 10.3542 
264 1 64.6003 22.4088 10.3542 
265 1 68.6185 20.3997 8.34504 
266 1 70.6276 22.4088 8.34504 
267 1 70.6276 20.3997 10.3542 
268 1 68.6185 22.4088 10.3542 
269 1 72.6367 20.3997 8.34504 
270 1 74.6458 22.4088 8.34504 
271 1 74.6458 20.3997 10.3542 
272 1 72.6367 22.4088 10.3542 
273 1 8.34504 24.418 8.34504 
274 1 10.3542 26.4271 8.34504 
275 1 10.3542 24.418 10.3542 
276 1 8.34504 26.4271 10.3542 
277 1 12.3633 24.418 8.34504 
278 1 14.3724 26.4271 8.34504 
279 1 14.3724 24.418 10.3542 
280 1 12.3633 26.4271 10.3542 
281 1 16.3815 24.418 8.34504 
282 1 18.3906 26.4271 8.34504 
283 1 18.3906 24.418 10.3542 
284 1 16.3815 26.4271 10.3542 
285 1 20.3997 24.418 8.34504 
286 1 22.4088 26.4271 8.34504 
287 1 22.4088 24.418 10.3542 
288 1 20.3997 26.4271 10.3542 
289 1 24.418 24.418 8.34504 
290 1 26.4271 26.4271 8.34504 
291 1 26.4271 24.418 10.3542 
292 1 24.418 26.4271 10.3542 
293 1 28.4362 24.418 8.34504 
294 1 30.4453 26.4271 8.34504 
295 1 30.4453 24.418 10.3542 
296 1 28.4362 26.4271 10.3542 
297 1 32.4544 24.418 8.34504 
298 1 34.4635 26.4271 8.34504 
299 1 34.4635 24.418 10.3542 
300 1 32.4544 26.4271 10.3542 
301 1 36.4727 24.418 8.34504 
302 1 38.4818 26.4271 8.34504 
303 1 38.4818 24.418 10.3542 
304 1 36.4727 26.4271 10.3542 
305 1 40.4909 24.418 8.34504 
306 1 42.5 26.4271 8.34504 
307 1 42.5 24.418 10.3542 
308 1 40.4909 26.4271 10.3542 
309 1 44.5091 24.418 8.34504 
310 1 46.5182 26.4271 8.34504 
311 1 46.5182 24.418 10.3542 
312 1 44.5091 26.4271 10.3542 
313 1 48.5273 24.418 8.34504 
314 1 50.5365 26.4271 8.34504 
315 1 50.5365 24.418 10.3542 
316 1 48.5273 26.4271 10.3542 
317 1 52.5456 24.418 8.34504 
318 1 54.5547 26.4271 8.34504 
319 1 54.5547 24.418 10.3542 
320 1 52.5456 26.4271 10.3542 
321 1 56.5638 24.418 8.34504 
322 1 58.5729 26.4271 8.34504 
323 1 58.5729 24.418 10.3542 
324 1 56.5638 26.4271 10.3542 
325 1 60.582 24.418 8.34504 
326 1 62.5912 26.4271 8.34504 
327 1 62.5912 24.418 10.3542 
328 1 60.582 26.4271 10.3542 
329 1 64.6003 24.418 8.34504 
330 1 66.6094 26.4271 8.34504 
331 1 66.6094 24.418 10.3542 
332 1 64.6003 26.4271 10.3542 
333 1 68.6185 24.418 8.34504 
334 1 70.6276 26.4271 8.34504 
335 1 70.6276 24.418 10.3542 
336 1 68.6185 26.4271 10.3542 
337 1 72.6367 24.418 8.34504 
338 1 74.6458 26.4271 8.34504 
339 1 74.6458 24.418 10.3542 
340 1 72.6367 26.4271 10.3542 
341 1 8.34504 28.4362 8.34504 
342 1 10.3542 30.4453 8.34504 
343 1 10.3542 28.4362 10.3542 
344 1 8.34504 30.4453 10.3542 
345 1 12.3633 28.4362 8.34504 
346 1 14.3724 30.4453 8.34504 
347 1 14.3724 28.4362 10.3542 
348 1 12.3633 30.4453 10.3542 
349 1 16.3815 28.4362 8.34504 
350 1 18.3906 30.4453 8.34504 
351 1 18.3906 28.4362 10.3542 
352 1 16.3815 30.4453 10.3542 
353 1 20.3997 28.4362 8.34504 
354 1 22.4088 30.4453 8.34504 
355 1 22.4088 28.4362 10.3542 
356 1 20.3997 30.4453 10.3542 
357 1 24.418 28.4362 8.34504 
358 1 26.4271 30.4453 8.34504 
359 1 26.4271 28.4362 10.3542 
360 1 24.418 30.4453 10.3542 
361 1 28.4362 28.4362 8.34504 
362 1 30.4453 30.4453 8.34504 
363 1 30.4453 28.4362 10.3542 
364 1 28.4362 30.4453 10.3542 
365 1 32.4544 28.4362 8.34504 
366 1 34.4635 30.4453 8.34504 
367 1 34.4635 28.4362 10.3542 
368 1 32.4544 30.4453 10.3542 
369 1 36.4727 28.4362 8.34504 
370 1 38.4818 30.4453 8.34504 
371 1 38.4818 28.4362 10.3542 
372 1 36.4727 30.4453 10.3542 
373 1 40.4909 28.4362 8.34504 
374 1 42.5 30.4453 8.34504 
375 1 42.5 28.4362 10.3542 
376 1 40.4909 30.4453 10.3542 
377 1 44.5091 28.4362 8.34504 
378 1 46.5182 30.4453 8.34504 
379 1 46.5182 28.4362 10.3542 
380 1 44.5091 30.4453 10.3542 
381 1 48.5273 28.4362 8.34504 
382 1 50.5365 30.4453 8.34504 
383 1 50.5365 28.4362 10.3542 
384 1 48.5273 30.4453 10.3542 
385 1 52.5456 28.4362 8.34504 
386 1 54.5547 30.4453 8.34504 
387 1 54.5547 28.4362 10.3542 
388 1 52.5456 30.4453 10.3542 
389 1 56.5638 28.4362 8.34504 
390 1 58.5729 30.4453 8.34504 
391 1 58.5729 28.4362 10.3542 
392 1 56.5638 30.4453 10.3542 
393 1 60.582 28.4362 8.34504 
394 1 62.5912 30.4453 8.34504 
395 1 62.5912 28.4362 10.3542 
396 1 60.582 30.4453 10.3542 
397 1 64.6003 28.4362 8.34504 
398 1 66.6094 30.4453 8.34504 
399 1 66.6094 28.4362 10.3542 
400 1 64.6003 30.4453 10.3542 
401 1 68.6185 28.4362 8.34504 
402 1 70.6276 30.4453 8.34504 
403 1 70.6276 28.4362 10.3542 
404 1 68.6185 30.4453 10.3542 
405 1 72.6367 28.4362 8.34504 
406 1 74.6458 30.4453 8.34504 
407 1 74.6458 28.4362 10.3542 
408 1 72.6367 30.4453 10.3542 
409 1 8.34504 32.4544 8.34504 
410 1 10.3542 34.4635 8.34504 
411 1 10.3542 32.4544 10.3542 
412 1 8.34504 34.4635 10.3542 
413 1 12.3633 32.4544 8.34504 
414 1 14.3724 34.4635 8.34504 
415 1 14.3724 32.4544 10.3542 
416 1 12.3633 34.4635 10.3542 
417 1 16.3815 32.4544 8.34504 
418 1 18.3906 34.4635 8.34504 
419 1 18.3906 32.4544 10.3542 
420 1 16.3815 34.4635 10.3542 
421 1 20.3997 32.4544 8.34504 
422 1 22.4088 34.4635 8.34504 
423 1 22.4088 32.4544 10.3542 
424 1 20.3997 34.4635 10.3542 
425 1 24.418 32.4544 8.34504 
426 1 26.4271 34.4635 8.34504 
427 1 26.4271 32.4544 10.3542 
428 1 24.418 34.4635 10.3542 
429 1 28.4362 32.4544 8.34504 
430 1 30.4453 34.4635 8.34504 
431 1 30.4453 32.4544 10.3542 
432 1 28.4362 34.4635 10.3542 
433 1 32.4544 32.4544 8.34504 
434 1 34.4635 34.4635 8.34504 
435 1 34.4635 32.4544 10.3542 
436 1 32.4544 34.4635 10.3542 
437 1 36.4727 32.4544 8.34504 
438 1 38.4818 34.4635 8.34504 
439 1 38.4818 32.4544 10.3542 
440 1 36.4727 34.4635 10.3542 
441 1 40.4909 32.4544 8.34504 
442 1 42.5 34.4635 8.34504 
443 1 42.5 32.4544 10.3542 
444 1 40.4909 34.4635 10.3542 
445 1 44.5091 32.4544 8.34504 
446 1 46.5182 34.4635 8.34504 
447 1 46.5182 32.4544 10.3542 
448 1 44.5091 34.4635 10.3542 
449 1 48.5273 32.4544 8.34504 
450 1 50.5365 34.4635 8.34504 
451 1 50.5365 32.4544 10.3542 
452 1 48.5273 34.4635 10.3542 
453 1 52.5456 32.4544 8.34504 
454 1 54.5547 34.4635 8.34504 
455 1 54.5547 32.4544 10.3542 
456 1 52.5456 34.4635 10.3542 
457 1 56.5638 32.4544 8.34504 
458 1 58.5729 34.4635 8.34504 
459 1 58.5729 32.4544 10.3542 
460 1 56.5638 34.4635 10.3542 
461 1 60.582 32.4544 8.34504 
462 1 62.5912 34.4635 8.34504 
463 1 62.5912 32.4544 10.3542 
464 1 60.582 34.4635 10.3542 
465 1 64.6003 32.4544 8.34504 
466 1 66.6094 34.4635 8.34504 
467 1 66.6094 32.4544 10.3542 
468 1 64.6003 34.4635 10.3542 
469 1 68.6185 32.4544 8.34504 
470 1 70.6276 34.4635 8.34504 
471 1 70.6276 32.4544 10.3542 
472 1 68.6185 34.4635 10.3542 
473 1 72.6367 32.4544 8.34504 
474 1 74.6458 34.4635 8.34504 
475 1 74.6458 32.4544 10.3542 
476 1 72.6367 34.4635 10.3542 
477 1 8.34504 36.4727 8.34504 
478 1 10.3542 38.4818 8.34504 
479 1 10.3542 36.4727 10.3542 
480 1 8.34504 38.4818 10.3542 
481 1 12.3633 36.4727 8.34504 
482 1 14.3724 38.4818 8.34504 
483 1 14.3724 36.4727 10.3542 
484 1 12.3633 38.4818 10.3542 
485 1 16.3815 36.4727 8.34504 
486 1 18.3906 38.4818 8.34504 
487 1 18.3906 36.4727 10.3542 
488 1 16.3815 38.4818 10.3542 
489 1 20.3997 36.4727 8.34504 
490 1 22.4088 38.4818 8.34504 
491 1 22.4088 36.4727 10.3542 
492 1 20.3997 38.4818 10.3542 
493 1 24.418 36.4727 8.34504 
494 1 26.4271 38.4818 8.34504 
495 1 26.4271 36.4727 10.3542 
496 1 24.418 38.4818 10.3542 
497 1 28.4362 36.4727 8.34504 
498 1 30.4453 38.4818 8.34504 
499 1 30.4453 36.4727 10.3542 
500 1 28.4362 38.4818 10.3542 
501 1 32.4544 36.4727 8.34504 
502 1 34.4635 38.4818 8.34504 
503 1 34.4635 36.4727 10.3542 
504 1 32.4544 38.4818 10.3542 
505 1 36.4727 36.4727 8.34504 
506 1 38.4818 38.4818 8.34504 
507 1 38.4818 36.4727 10.3542 
508 1 36.4727 38.4818 10.3542 
509 1 40.4909 36.4727 8.34504 
510 1 42.5 38.4818 8.34504 
511 1 42.5 36.4727 10.3542 
512 1 40.4909 38.4818 10.3542 
513 1 44.5091 36.4727 8.34504 
514 1 46.5182 38.4818 8.34504 
515 1 46.5182 36.4727 10.3542 
516 1 44.5091 38.4818 10.3542 
517 1 48.5273 36.4727 8.34504 
518 1 50.5365 38.4818 8.34504 
519 1 50.5365 36.4727 10.3542 
520 1 48.5273 38.4818 10.3542 
521 1 52.5456 36.4727 8.34504 
522 1 54.5547 38.4818 8.34504 
523 1 54.5547 36.4727 10.3542 
524 1 52.5456 38.4818 10.3542 
525 1 56.5638 36.4727 8.34504 
526 1 58.5729 38.4818 8.34504 
527 1 58.5729 36.4727 10.3542 
528 1 56.5638 38.4818 10.3542 
529 1 60.582 36.4727 8.34504 
530 1 62.5912 38.4818 8.34504 
531 1 62.5912 36.4727 10.3542 
532 1 60.582 38.4818 10.3542 
533 1 64.6003 36.4727 8.34504 
534 1 66.6094 38.4818 8.34504 
535 1 66.6094 36.4727 10.3542 
536 1 64.6003 38.4818 10.3542 
537 1 68.6185 36.4727 8.34504 
538 1 70.6276 38.4818 8.34504 
539 1 70.6276 36.4727 10.3542 
540 1 68.6185 38.4818 10.3542 
541 1 72.6367 36.4727 8.34504 
542 1 74.6458 38.4818 8.34504 
543 1 74.6458 36.4727 10.3542 
544 1 72.6367 38.4818 10.3542 
545 1 8.34504 40.4909 8.34504 
546 1 10.3542 42.5 8.34504 
547 1 10.3542 40.4909 10.3542 
548 1 8.34504 42.5 10.3542 
549 1 12.3633 40.4909 8.34504 
550 1 14.3724 42.5 8.34504 
551 1 14.3724 40.4909 10.3542 
552 1 12.3633 42.5 10.3542 
553 1 16.3815 40.4909 8.34504 
554 1 18.3906 42.5 8.34504 
555 1 18.3906 40.4909 10.3542 
556 1 16.3815 42.5 10.3542 
557 1 20.3997 40.4909 8.34504 
558 1 22.4088 42.5 8.34504 
559 1 22.4088 40.4909 10.3542 
560 1 20.3997 42.5 10.3542 
561 1 24.418 40.4909 8.34504 
562 1 26.4271 42.5 8.34504 
563 1 26.4271 40.4909 10.3542 
564 1 24.418 42.5 10.3542 
565 1 28.4362 40.4909 8.34504 
566 1 30.4453 42.5 8.34504 
567 1 30.4453 40.4909 10.3542 
568 1 28.4362 42.5 10.3542 
569 1 32.4544 40.4909 8.34504 
570 1 34.4635 42.5 8.34504 
571 1 34.4635 40.4909 10.3542 
572 1 32.4544 42.5 10.3542 
573 1 36.4727 40.4909 8.34504 
574 1 38.4818 42.5 8.34504 
575 1 38.4818 40.4909 10.3542 
576 1 36.4727 42.5 10.3542 
577 1 40.4909 40.4909 8.34504 
578 1 42.5 42.5 8.34504 
579 1 42.5 40.4909 10.3542 
580 1 40.4909 42.5 10.3542 
581 1 44.5091 40.4909 8.34504 
582 1 46.5182 42.5 8.34504 
583 1 46.5182 40.4909 10.3542 
584 1 44.5091 42.5 10.3542 
585 1 48.5273 40.4909 8.34504 
586 1 50.5365 42.5 8.34504 
587 1 50.5365 40.4909 10.3542 
588 1 48.5273 42.5 10.3542 
589 1 52.5456 40.4909 8.34504 
590 1 54.5547 42.5 8.34504 
591 1 54.5547 40.4909 10.3542 
592 1 52.5456 42.5 10.3542 
593 1 56.5638 40.4909 8.34504 
594 1 58.5729 42.5 8.34504 
595 1 58.5729 40.4909 10.3542 
596 1 56.5638 42.5 10.3542 
597 1 60.582 40.4909 8.34504 
598 1 62.5912 42.5 8.34504 
599 1 62.5912 40.4909 10.3542 
600 1 60.582 42.5 10.3542 
601 1 64.6003 40.4909 8.34504 
602 1 66.6094 42.5 8.34504 
603 1 66.6094 40.4909 10.3542 
604 1 64.6003 42.5 10.3542 
605 1 68.6185 40.4909 8.34504 
606 1 70.6276 42.5 8.34504 
607 1 70.6276 40.4909 10.3542 
608 1 68.6185 42.5 10.3542 
609 1 72.6367 40.4909 8.34504 
610 1 74.6458 42.5 8.34504 
611 1 74.6458 40.4909 10.3542 
612 1 72.6367 42.5 10.3542 
613 1 8.34504 44.5091 8.34504 
614 1 10.3542 46.5182 8.34504 
615 1 10.3542 44.5091 10.3542 
616 1 8.34504 46.5182 10.3542 
617 1 12.3633 44.5091 8.34504 
618 1 14.3724 46.5182 8.34504 
619 1 14.3724 44.5091 10.3542 
620 1 12.3633 46.5182 10.3542 
621 1 16.3815 44.5091 8.34504 
622 1 18.3906 46.5182 8.34504 
623 1 18.3906 44.5091 10.3542 
624 1 16.3815 46.5182 10.3542 
625 1 20.3997 44.5091 8.34504 
626 1 22.4088 46.5182 8.34504 
627 1 22.4088 44.5091 10.3542 
628 1 20.3997 46.5182 10.3542 
629 1 24.418 44.5091 8.34504 
630 1 26.4271 46.5182 8.34504 
631 1 26.4271 44.5091 10.3542 
632 1 24.418 46.5182 10.3542 
633 1 28.4362 44.5091 8.34504 
634 1 30.4453 46.5182 8.34504 
635 1 30.4453 44.5091 10.3542 
636 1 28.4362 46.5182 10.3542 
637 1 32.4544 44.5091 8.34504 
638 1 34.4635 46.5182 8.34504 
639 1 34.4635 44.5091 10.3542 
640 1 32.4544 46.5182 10.3542 
641 1 36.4727 44.5091 8.34504 
642 1 38.4818 46.5182 8.34504 
643 1 38.4818 44.5091 10.3542 
644 1 36.4727 46.5182 10.3542 
645 1 40.4909 44.5091 8.34504 
646 1 42.5 46.5182 8.34504 
647 1 42.5 44.5091 10.3542 
648 1 40.4909 46.5182 10.3542 
649 1 44.5091 44.5091 8.34504 
650 1 46.5182 46.5182 8.34504 
651 1 46.5182 44.5091 10.3542 
652 1 44.5091 46.5182 10.3542 
653 1 48.5273 44.5091 8.34504 
654 1 50.5365 46.5182 8.34504 
655 1 50.5365 44.5091 10.3542 
656 1 48.5273 46.5182 10.3542 
657 1 52.5456 44.5091 8.34504 
658 1 54.5547 46.5182 8.34504 
659 1 54.5547 44.5091 10.3542 
660 1 52.5456 46.5182 10.3542 
661 1 56.5638 44.5091 8.34504 
662 1 58.5729 46.5182 8.34504 
663 1 58.5729 44.5091 10.3542 
664 1 56.5638 46.5182 10.3542 
665 1 60.582 44.5091 8.34504 
666 1 62.5912 46.5182 8.34504 
667 1 62.5912 44.5091 10.3542 
668 1 60.582 46.5182 10.3542 
669 1 64.6003 44.5091 8.34504 
670 1 66.6094 46.5182 8.34504 
671 1 66.6094 44.5091 10.3542 
672 1 64.6003 46.5182 10.3542 
673 1 68.6185 44.5091 8.34504 
674 1 70.6276 46.5182 8.34504 
675 1 70.6276 44.5091 10.3542 
676 1 68.6185 46.5182 10.3542 
677 1 72.6367 44.5091 8.34504 
678 1 74.6458 46.5182 8.34504 
679 1 74.6458 44.5091 10.3542 
680 1 72.6367 46.5182 10.3542 
681 1 8.34504 48.5273 8.34504 
682 1 10.3542 50.5365 8.34504 
683 1 10.3542 48.5273 10.3542 
684 1 8.34504 50.5365 10.3542 
685 1 12.3633 48.5273 8.34504 
686 1 14.3724 50.5365 8.34504 
687 1 14.3724 48.5273 10.3542 
688 1 12.3633 50.5365 10.3542 
689 1 16.3815 48.5273 8.34504 
690 1 18.3906 50.5365 8.34504 
691 1 18.3906 48.5273 10.3542 
692 1 16.3815 50.5365 10.3542 
693 1 20.3997 48.5273 8.34504 
694 1 22.4088 50.5365 8.34504 
695 1 22.4088 48.5273 10.3542 
696 1 20.3997 50.5365 10.3542 
697 1 24.418 48.5273 8.34504 
698 1 26.4271 50.5365 8.34504 
699 1 26.4271 48.5273 10.3542 
700 1 24.418 50.5365 10.3542 
701 1 28.4362 48.5273 8.34504 
702 1 30.4453 50.5365 8.34504 
703 1 30.4453 48.5273 10.3542 
704 1 28.4362 50.5365 10.3542 
705 1 32.4544 48.5273 8.34504 
706 1 34.4635 50.5365 8.34504 
707 1 34.4635 48.5273 10.3542 
708 1 32.4544 50.5365 10.3542 
709 1 36.4727 48.5273 8.34504 
710 1 38.4818 50.5365 8.34504 
711 1 38.4818 48.5273 10.3542 
712 1 36.4727 50.5365 10.3542 
713 1 40.4909 48.5273 8.34504 
714 1 42.5 50.5365 8.34504 
715 1 42.5 48.5273 10.3542 
716 1 40.4909 50.5365 10.3542 
717 1 44.5091 48.5273 8.34504 
718 1 46.5182 50.5365 8.34504 
719 1 46.5182 48.5273 10.3542 
720 1 44.5091 50.5365 10.3542 
721 1 48.5273 48.5273 8.34504 
722 1 50.5365 50.5365 8.34504 
723 1 50.5365 48.5273 10.3542 
724 1 48.5273 50.5365 10.3542 
725 1 52.5456 48.5273 8.34504 
726 1 54.5547 50.5365 8.34504 
727 1 54.5547 48.5273 10.3542 
728 1 52.5456 50.5365 10.3542 
729 1 56.5638 48.5273 8.34504 
730 1 58.5729 50.5365 8.34504 
731 1 58.5729 48.5273 10.3542 
732 1 56.5638 50.5365 10.3542 
733 1 60.582 48.5273 8.34504 
734 1 62.5912 50.5365 8.34504 
735 1 62.5912 48.5273 10.3542 
736 1 60.582 50.5365 10.3542 
737 1 64.6003 48.5273 8.34504 
738 1 66.6094 50.5365 8.34504 
739 1 66.6094 48.5273 10.3542 
740 1 64.6003 50.5365 10.3542 
741 1 68.6185 48.5273 8.34504 
742 1 70.6276 50.5365 8.34504 
743 1 70.6276 48.5273 10.3542 
744 1 68.6185 50.5365 10.3542 
745 1 72.6367 48.5273 8.34504 
746 1 74.6458 50.5365 8.34504 
747 1 74.6458 48.5273 10.3542 
748 1 72.6367 50.5365 10.3542 
749 1 8.34504 52.5456 8.34504 
750 1 10.3542 54.5547 8.34504 
751 1 10.3542 52.5456 10.3542 
752 1 8.34504 54.5547 10.3542 
753 1 12.3633 52.5456 8.34504 
754 1 14.3724 54.5547 8.34504 
755 1 14.3724 52.5456 10.3542 
756 1 12.3633 54.5547 10.3542 
757 1 16.3815 52.5456 8.34504 
758 1 18.3906 54.5547 8.34504 
759 1 18.3906 52.5456 10.3542 
760 1 16.3815 54.5547 10.3542 
761 1 20.3997 52.5456 8.34504 
762 1 22.4088 54.5547 8.34504 
763 1 22.4088 52.5456 10.3542 
764 1 20.3997 54.5547 10.3542 
765 1 24.418 52.5456 8.34504 
766 1 26.4271 54.5547 8.34504 
767 1 26.4271 52.5456 10.3542 
768 1 24.418 54.5547 10.3542 
769 1 28.4362 52.5456 8.34504 
770 1 30.4453 54.5547 8.34504 
771 1 30.4453 52.5456 10.3542 
772 1 28.4362 54.5547 10.3542 
773 1 32.4544 52.5456 8.34504 
774 1 34.4635 54.5547 8.34504 
775 1 34.4635 52.5456 10.3542 
776 1 32.4544 54.5547 10.3542 
777 1 36.4727 52.5456 8.34504 
778 1 38.4818 54.5547 8.34504 
779 1 38.4818 52.5456 10.3542 
780 1 36.4727 54.5547 10.3542 
781 1 40.4909 52.5456 8.34504 
782 1 42.5 54.5547 8.34504 
783 1 42.5 52.5456 10.3542 
784 1 40.4909 54.5547 10.3542 
785 1 44.5091 52.5456 8.34504 
786 1 46.5182 54.5547 8.34504 
787 1 46.5182 52.5456 10.3542 
788 1 44.5091 54.5547 10.3542 
789 1 48.5273 52.5456 8.34504 
790 1 50.5365 54.5547 8.34504 
791 1 50.5365 52.5456 10.3542 
792 1 48.5273 54.5547 10.3542 
793 1 52.5456 52.5456 8.34504 
794 1 54.5547 54.5547 8.34504 
795 1 54.5547 52.5456 10.3542 
796 1 52.5456 54.5547 10.3542 
797 1 56.5638 52.5456 8.34504 
798 1 58.5729 54.5547 8.34504 
799 1 58.5729 52.5456 10.3542 
800 1 56.5638 54.5547 10.3542 
801 1 60.582 52.5456 8.34504 
802 1 62.5912 54.5547 8.34504 
803 1 62.5912 52.5456 10.3542 
804 1 60.582 54.5547 10.3542 
805 1 64.6003 52.5456 8.34504 
806 1 66.6094 54.5547 8.34504 
807 1 66.6094 52.5456 10.3542 
808 1 64.6003 54.5547 10.3542 
809 1 68.6185 52.5456 8.34504 
810 1 70.6276 54.5547 8.34504 
811 1 70.6276 52.5456 10.3542 
812 1 68.6185 54.5547 10.3542 
813 1 72.6367 52.5456 8.34504 
814 1 74.6458 54.5547 8.34504 
815 1 74.6458 52.5456 10.3542 
816 1 72.6367 54.5547 10.3542 
817 1 8.34504 56.5638 8.34504 
818 1 10.3542 58.5729 8.34504 
819 1 10.3542 56.5638 10.3542 
820 1 8.34504 58.5729 10.3542 
821 1 12.3633 56.5638 8.34504 
822 1 14.3724 58.5729 8.34504 
823 1 14.3724 56.5638 10.3542 
824 1 12.3633 58.5729 10.3542 
825 1 16.3815 56.5638 8.34504 
826 1 18.3906 58.5729 8.34504 
827 1 18.3906 56.5638 10.3542 
828 1 16.3815 58.5729 10.3542 
829 1 20.3997 56.5638 8.34504 
830 1 22.4088 58.5729 8.34504 
831 1 22.4088 56.5638 10.3542 
832 1 20.3997 58.5729 10.3542 
833 1 24.418 56.5638 8.34504 
834 1 26.4271 58.5729 8.34504 
835 1 26.4271 56.5638 10.3542 
836 1 24.418 58.5729 10.3542 
837 1 28.4362 56.5638 8.34504 
838 1 30.4453 58.5729 8.34504 
839 1 30.4453 56.5638 10.3542 
840 1 28.4362 58.5729 10.3542 
841 1 32.4544 56.5638 8.34504 
842 1 34.4635 58.5729 8.34504 
843 1 34.4635 56.5638 10.3542 
844 1 32.4544 58.5729 10.3542 
845 1 36.4727 56.5638 8.34504 
846 1 38.4818 58.5729 8.34504 
847 1 38.4818 56.5638 10.3542 
848 1 36.4727 58.5729 10.3542 
849 1 40.4909 56.5638 8.34504 
850 1 42.5 58.5729 8.34504 
851 1 42.5 56.5638 10.3542 
852 1 40.4909 58.5729 10.3542 
853 1 44.5091 56.5638 8.34504 
854 1 46.5182 58.5729 8.34504 
855 1 46.5182 56.5638 10.3542 
856 1 44.5091 58.5729 10.3542 
857 1 48.5273 56.5638 8.34504 
858 1 50.5365 58.5729 8.34504 
859 1 50.5365 56.5638 10.3542 
860 1 48.5273 58.5729 10.3542 
861 1 52.5456 56.5638 8.34504 
862 1 54.5547 58.5729 8.34504 
863 1 54.5547 56.5638 10.3542 
864 1 52.5456 58.5729 10.3542 
865 1 56.5638 56.5638 8.34504 
866 1 58.5729 58.5729 8.34504 
867 1 58.5729 56.5638 10.3542 
868 1 56.5638 58.5729 10.3542 
869 1 60.582 56.5638 8.34504 
870 1 62.5912 58.5729 8.34504 
871 1 62.5912 56.5638 10.3542 
872 1 60.582 58.5729 10.3542 
873 1 64.6003 56.5638 8.34504 
874 1 66.6094 58.5729 8.34504 
875 1 66.6094 56.5638 10.3542 
876 1 64.6003 58.5729 10.3542 
877 1 68.6185 56.5638 8.34504 
878 1 70.6276 58.5729 8.34504 
879 1 70.6276 56.5638 10.3542 
880 1 68.6185 58.5729 10.3542 
881 1 72.6367 56.5638 8.34504 
882 1 74.6458 58.5729 8.34504 
883 1 74.6458 56.5638 10.3542 
884 1 72.6367 58.5729 10.3542 
885 1 8.34504 60.582 8.34504 
886 1 10.3542 62.5912 8.34504 
887 1 10.3542 60.582 10.3542 
888 1 8.34504 62.5912 10.3542 
889 1 12.3633 60.582 8.34504 
890 1 14.3724 62.5912 8.34504 
891 1 14.3724 60.582 10.3542 
892 1 12.3633 62.5912 10.3542 
893 1 16.3815 60.582 8.34504 
894 1 18.3906 62.5912 8.34504 
895 1 18.3906 60.582 10.3542 
896 1 16.3815 62.5912 10.3542 
897 1 20.3997 60.582 8.34504 
898 1 22.4088 62.5912 8.34504 
899 1 22.4088 60.582 10.3542 
900 1 20.3997 62.5912 10.3542 
901 1 24.418 60.582 8.34504 
902 1 26.4271 62.5912 8.34504 
903 1 26.4271 60.582 10.3542 
904 1 24.418 62.5912 10.3542 
905 1 28.4362 60.582 8.34504 
906 1 30.4453 62.5912 8.34504 
907 1 30.4453 60.582 10.3542 
908 1 28.4362 62.5912 10.3542 
909 1 32.4544 60.582 8.34504 
910 1 34.4635 62.5912 8.34504 
911 1 34.4635 60.582 10.3542 
912 1 32.4544 62.5912 10.3542 
913 1 36.4727 60.582 8.34504 
914 1 38.4818 62.5912 8.34504 
915 1 38.4818 60.582 10.3542 
916 1 36.4727 62.5912 10.3542 
917 1 40.4909 60.582 8.34504 
918 1 42.5 62.5912 8.34504 
919 1 42.5 60.582 10.3542 
920 1 40.4909 62.5912 10.3542 
921 1 44.5091 60.582 8.34504 
922 1 46.5182 62.5912 8.34504 
923 1 46.5182 60.582 10.3542 
924 1 44.5091 62.5912 10.3542 
925 1 48.5273 60.582 8.34504 
926 1 50.5365 62.5912 8.34504 
927 1 50.5365 60.582 10.3542 
928 1 48.5273 62.5912 10.3542 
929 1 52.5456 60.582 8.34504 
930 1 54.5547 62.5912 8.34504 
931 1 54.5547 60.582 10.3542 
932 1 52.5456 62.5912 10.3542 
933 1 56.5638 60.582 8.34504 
934 1 58.5729 62.5912 8.34504 
935 1 58.5729 60.582 10.3542 
936 1 56.5638 62.5912 10.3542 
937 1 60.582 60.582 8.34504 
938 1 62.5912 62.5912 8.34504 
939 1 62.5912 60.582 10.3542 
940 1 60.582 62.5912 10.3542 
941 1 64.6003 60.582 8.34504 
942 1 66.6094 62.5912 8.34504 
943 1 66.6094 60.582 10.3542 
944 1 64.6003 62.5912 10.3542 
945 1 68.6185 60.582 8.34504 
946 1 70.6276 62.5912 8.34504 
947 1 70.6276 60.582 10.3542 
948 1 68.6185 62.5912 10.3542 
949 1 72.6367 60.582 8.34504 
950 1 74.6458 62.5912 8.34504 
951 1 74.6458 60.582 10.3542 
952 1 72.6367 62.5912 10.3542 
953 1 8.34504 64.6003 8.34504 
954 1 10.3542 66.6094 8.34504 
955 1 10.3542 64.6003 10.3542 
956 1 8.34504 66.6094 10.3542 
957 1 12.3633 64.6003 8.34504 
958 1 14.3724 66.6094 8.34504 
959 1 14.3724 64.6003 10.3542 
960 1 12.3633 66.6094 10.3542 
961 1 16.3815 64.6003 8.34504 
962 1 18.3906 66.6094 8.34504 
963 1 18.3906 64.6003 10.3542 
964 1 16.3815 66.6094 10.3542 
965 1 20.3997 64.6003 8.34504 
966 1 22.4088 66.6094 8.34504 
967 1 22.4088 64.6003 10.3542 
968 1 20.3997 66.6094 10.3542 
969 1 24.418 64.6003 8.34504 
970 1 26.4271 66.6094 8.34504 
971 1 26.4271 64.6003 10.3542 
972 1 24.418 66.6094 10.3542 
973 1 28.4362 64.6003 8.34504 