ITEM: TIMESTEP
13
ITEM: NUMBER OF ATOMS
19652
ITEM: BOX BOUNDS pp pp pp
-2.1986940781326210e+00 8.7198694078132675e+01
-2.1986940781326210e+00 8.7198694078132675e+01
-2.1986940781326210e+00 8.7198694078132675e+01
ITEM: ATOMS id type xu yu zu 
1 2 -2.19869 -2.19869 -2.19869 
2 2 0.430641 0.430641 -2.19869 
3 2 0.430641 -2.19869 0.430641 
4 2 -2.19869 0.430641 0.430641 
5 2 3.05998 -2.19869 -2.19869 
6 2 5.68931 0.430641 -2.19869 
7 2 5.68931 -2.19869 0.430641 
8 2 3.05998 0.430641 0.430641 
9 2 8.31865 -2.19869 -2.19869 
10 2 10.948 0.430641 -2.19869 
11 2 10.948 -2.19869 0.430641 
12 2 8.31865 0.430641 0.430641 
13 2 13.5773 -2.19869 -2.19869 
14 2 16.2067 0.430641 -2.19869 
15 2 16.2067 -2.19869 0.430641 
16 2 13.5773 0.430641 0.430641 
17 2 18.836 -2.19869 -2.19869 
18 2 21.4653 0.430641 -2.19869 
19 2 21.4653 -2.19869 0.430641 
20 2 18.836 0.430641 0.430641 
21 2 24.0947 -2.19869 -2.19869 
22 2 26.724 0.430641 -2.19869 
23 2 26.724 -2.19869 0.430641 
24 2 24.0947 0.430641 0.430641 
25 2 29.3533 -2.19869 -2.19869 
26 2 31.9827 0.430641 -2.19869 
27 2 31.9827 -2.19869 0.430641 
28 2 29.3533 0.430641 0.430641 
29 2 34.612 -2.19869 -2.19869 
30 2 37.2413 0.430641 -2.19869 
31 2 37.2413 -2.19869 0.430641 
32 2 34.612 0.430641 0.430641 
33 2 39.8707 -2.19869 -2.19869 
34 2 42.5 0.430641 -2.19869 
35 2 42.5 -2.19869 0.430641 
36 2 39.8707 0.430641 0.430641 
37 2 45.1293 -2.19869 -2.19869 
38 2 47.7587 0.430641 -2.19869 
39 2 47.7587 -2.19869 0.430641 
40 2 45.1293 0.430641 0.430641 
41 2 50.388 -2.19869 -2.19869 
42 2 53.0173 0.430641 -2.19869 
43 2 53.0173 -2.19869 0.430641 
44 2 50.388 0.430641 0.430641 
45 2 55.6467 -2.19869 -2.19869 
46 2 58.276 0.430641 -2.19869 
47 2 58.276 -2.19869 0.430641 
48 2 55.6467 0.430641 0.430641 
49 2 60.9053 -2.19869 -2.19869 
50 2 63.5347 0.430641 -2.19869 
51 2 63.5347 -2.19869 0.430641 
52 2 60.9053 0.430641 0.430641 
53 2 66.164 -2.19869 -2.19869 
54 2 68.7933 0.430641 -2.19869 
55 2 68.7933 -2.19869 0.430641 
56 2 66.164 0.430641 0.430641 
57 2 71.4227 -2.19869 -2.19869 
58 2 74.052 0.430641 -2.19869 
59 2 74.052 -2.19869 0.430641 
60 2 71.4227 0.430641 0.430641 
61 2 76.6814 -2.19869 -2.19869 
62 2 79.3107 0.430641 -2.19869 
63 2 79.3107 -2.19869 0.430641 
64 2 76.6814 0.430641 0.430641 
65 2 81.94 -2.19869 -2.19869 
66 2 84.5694 0.430641 -2.19869 
67 2 84.5694 -2.19869 0.430641 
68 2 81.94 0.430641 0.430641 
69 2 -2.19869 3.05998 -2.19869 
70 2 0.430641 5.68931 -2.19869 
71 2 0.430641 3.05998 0.430641 
72 2 -2.19869 5.68931 0.430641 
73 2 3.05998 3.05998 -2.19869 
74 2 5.68931 5.68931 -2.19869 
75 2 5.68931 3.05998 0.430641 
76 2 3.05998 5.68931 0.430641 
77 2 8.31865 3.05998 -2.19869 
78 2 10.948 5.68931 -2.19869 
79 2 10.948 3.05998 0.430641 
80 2 8.31865 5.68931 0.430641 
81 2 13.5773 3.05998 -2.19869 
82 2 16.2067 5.68931 -2.19869 
83 2 16.2067 3.05998 0.430641 
84 2 13.5773 5.68931 0.430641 
85 2 18.836 3.05998 -2.19869 
86 2 21.4653 5.68931 -2.19869 
87 2 21.4653 3.05998 0.430641 
88 2 18.836 5.68931 0.430641 
89 2 24.0947 3.05998 -2.19869 
90 2 26.724 5.68931 -2.19869 
91 2 26.724 3.05998 0.430641 
92 2 24.0947 5.68931 0.430641 
93 2 29.3533 3.05998 -2.19869 
94 2 31.9827 5.68931 -2.19869 
95 2 31.9827 3.05998 0.430641 
96 2 29.3533 5.68931 0.430641 
97 2 34.612 3.05998 -2.19869 
98 2 37.2413 5.68931 -2.19869 
99 2 37.2413 3.05998 0.430641 
100 2 34.612 5.68931 0.430641 
101 2 39.8707 3.05998 -2.19869 
102 2 42.5 5.68931 -2.19869 
103 2 42.5 3.05998 0.430641 
104 2 39.8707 5.68931 0.430641 
105 2 45.1293 3.05998 -2.19869 
106 2 47.7587 5.68931 -2.19869 
107 2 47.7587 3.05998 0.430641 
108 2 45.1293 5.68931 0.430641 
109 2 50.388 3.05998 -2.19869 
110 2 53.0173 5.68931 -2.19869 
111 2 53.0173 3.05998 0.430641 
112 2 50.388 5.68931 0.430641 
113 2 55.6467 3.05998 -2.19869 
114 2 58.276 5.68931 -2.19869 
115 2 58.276 3.05998 0.430641 
116 2 55.6467 5.68931 0.430641 
117 2 60.9053 3.05998 -2.19869 
118 2 63.5347 5.68931 -2.19869 
119 2 63.5347 3.05998 0.430641 
120 2 60.9053 5.68931 0.430641 
121 2 66.164 3.05998 -2.19869 
122 2 68.7933 5.68931 -2.19869 
123 2 68.7933 3.05998 0.430641 
124 2 66.164 5.68931 0.430641 
125 2 71.4227 3.05998 -2.19869 
126 2 74.052 5.68931 -2.19869 
127 2 74.052 3.05998 0.430641 
128 2 71.4227 5.68931 0.430641 
129 2 76.6814 3.05998 -2.19869 
130 2 79.3107 5.68931 -2.19869 
131 2 79.3107 3.05998 0.430641 
132 2 76.6814 5.68931 0.430641 
133 2 81.94 3.05998 -2.19869 
134 2 84.5694 5.68931 -2.19869 
135 2 84.5694 3.05998 0.430641 
136 2 81.94 5.68931 0.430641 
137 2 -2.19869 8.31865 -2.19869 
138 2 0.430641 10.948 -2.19869 
139 2 0.430641 8.31865 0.430641 
140 2 -2.19869 10.948 0.430641 
141 2 3.05998 8.31865 -2.19869 
142 2 5.68931 10.948 -2.19869 
143 2 5.68931 8.31865 0.430641 
144 2 3.05998 10.948 0.430641 
145 2 8.31865 8.31865 -2.19869 
146 2 10.948 10.948 -2.19869 
147 2 10.948 8.31865 0.430641 
148 2 8.31865 10.948 0.430641 
149 2 13.5773 8.31865 -2.19869 
150 2 16.2067 10.948 -2.19869 
151 2 16.2067 8.31865 0.430641 
152 2 13.5773 10.948 0.430641 
153 2 18.836 8.31865 -2.19869 
154 2 21.4653 10.948 -2.19869 
155 2 21.4653 8.31865 0.430641 
156 2 18.836 10.948 0.430641 
157 2 24.0947 8.31865 -2.19869 
158 2 26.724 10.948 -2.19869 
159 2 26.724 8.31865 0.430641 
160 2 24.0947 10.948 0.430641 
161 2 29.3533 8.31865 -2.19869 
162 2 31.9827 10.948 -2.19869 
163 2 31.9827 8.31865 0.430641 
164 2 29.3533 10.948 0.430641 
165 2 34.612 8.31865 -2.19869 
166 2 37.2413 10.948 -2.19869 
167 2 37.2413 8.31865 0.430641 
168 2 34.612 10.948 0.430641 
169 2 39.8707 8.31865 -2.19869 
170 2 42.5 10.948 -2.19869 
171 2 42.5 8.31865 0.430641 
172 2 39.8707 10.948 0.430641 
173 2 45.1293 8.31865 -2.19869 
174 2 47.7587 10.948 -2.19869 
175 2 47.7587 8.31865 0.430641 
176 2 45.1293 10.948 0.430641 
177 2 50.388 8.31865 -2.19869 
178 2 53.0173 10.948 -2.19869 
179 2 53.0173 8.31865 0.430641 
180 2 50.388 10.948 0.430641 
181 2 55.6467 8.31865 -2.19869 
182 2 58.276 10.948 -2.19869 
183 2 58.276 8.31865 0.430641 
184 2 55.6467 10.948 0.430641 
185 2 60.9053 8.31865 -2.19869 
186 2 63.5347 10.948 -2.19869 
187 2 63.5347 8.31865 0.430641 
188 2 60.9053 10.948 0.430641 
189 2 66.164 8.31865 -2.19869 
190 2 68.7933 10.948 -2.19869 
191 2 68.7933 8.31865 0.430641 
192 2 66.164 10.948 0.430641 
193 2 71.4227 8.31865 -2.19869 
194 2 74.052 10.948 -2.19869 
195 2 74.052 8.31865 0.430641 
196 2 71.4227 10.948 0.430641 
197 2 76.6814 8.31865 -2.19869 
198 2 79.3107 10.948 -2.19869 
199 2 79.3107 8.31865 0.430641 
200 2 76.6814 10.948 0.430641 
201 2 81.94 8.31865 -2.19869 
202 2 84.5694 10.948 -2.19869 
203 2 84.5694 8.31865 0.430641 
204 2 81.94 10.948 0.430641 
205 2 -2.19869 13.5773 -2.19869 
206 2 0.430641 16.2067 -2.19869 
207 2 0.430641 13.5773 0.430641 
208 2 -2.19869 16.2067 0.430641 
209 2 3.05998 13.5773 -2.19869 
210 2 5.68931 16.2067 -2.19869 
211 2 5.68931 13.5773 0.430641 
212 2 3.05998 16.2067 0.430641 
213 2 8.31865 13.5773 -2.19869 
214 2 10.948 16.2067 -2.19869 
215 2 10.948 13.5773 0.430641 
216 2 8.31865 16.2067 0.430641 
217 2 13.5773 13.5773 -2.19869 
218 2 16.2067 16.2067 -2.19869 
219 2 16.2067 13.5773 0.430641 
220 2 13.5773 16.2067 0.430641 
221 2 18.836 13.5773 -2.19869 
222 2 21.4653 16.2067 -2.19869 
223 2 21.4653 13.5773 0.430641 
224 2 18.836 16.2067 0.430641 
225 2 24.0947 13.5773 -2.19869 
226 2 26.724 16.2067 -2.19869 
227 2 26.724 13.5773 0.430641 
228 2 24.0947 16.2067 0.430641 
229 2 29.3533 13.5773 -2.19869 
230 2 31.9827 16.2067 -2.19869 
231 2 31.9827 13.5773 0.430641 
232 2 29.3533 16.2067 0.430641 
233 2 34.612 13.5773 -2.19869 
234 2 37.2413 16.2067 -2.19869 
235 2 37.2413 13.5773 0.430641 
236 2 34.612 16.2067 0.430641 
237 2 39.8707 13.5773 -2.19869 
238 2 42.5 16.2067 -2.19869 
239 2 42.5 13.5773 0.430641 
240 2 39.8707 16.2067 0.430641 
241 2 45.1293 13.5773 -2.19869 
242 2 47.7587 16.2067 -2.19869 
243 2 47.7587 13.5773 0.430641 
244 2 45.1293 16.2067 0.430641 
245 2 50.388 13.5773 -2.19869 
246 2 53.0173 16.2067 -2.19869 
247 2 53.0173 13.5773 0.430641 
248 2 50.388 16.2067 0.430641 
249 2 55.6467 13.5773 -2.19869 
250 2 58.276 16.2067 -2.19869 
251 2 58.276 13.5773 0.430641 
252 2 55.6467 16.2067 0.430641 
253 2 60.9053 13.5773 -2.19869 
254 2 63.5347 16.2067 -2.19869 
255 2 63.5347 13.5773 0.430641 
256 2 60.9053 16.2067 0.430641 
257 2 66.164 13.5773 -2.19869 
258 2 68.7933 16.2067 -2.19869 
259 2 68.7933 13.5773 0.430641 
260 2 66.164 16.2067 0.430641 
261 2 71.4227 13.5773 -2.19869 
262 2 74.052 16.2067 -2.19869 
263 2 74.052 13.5773 0.430641 
264 2 71.4227 16.2067 0.430641 
265 2 76.6814 13.5773 -2.19869 
266 2 79.3107 16.2067 -2.19869 
267 2 79.3107 13.5773 0.430641 
268 2 76.6814 16.2067 0.430641 
269 2 81.94 13.5773 -2.19869 
270 2 84.5694 16.2067 -2.19869 
271 2 84.5694 13.5773 0.430641 
272 2 81.94 16.2067 0.430641 
273 2 -2.19869 18.836 -2.19869 
274 2 0.430641 21.4653 -2.19869 
275 2 0.430641 18.836 0.430641 
276 2 -2.19869 21.4653 0.430641 
277 2 3.05998 18.836 -2.19869 
278 2 5.68931 21.4653 -2.19869 
279 2 5.68931 18.836 0.430641 
280 2 3.05998 21.4653 0.430641 
281 2 8.31865 18.836 -2.19869 
282 2 10.948 21.4653 -2.19869 
283 2 10.948 18.836 0.430641 
284 2 8.31865 21.4653 0.430641 
285 2 13.5773 18.836 -2.19869 
286 2 16.2067 21.4653 -2.19869 
287 2 16.2067 18.836 0.430641 
288 2 13.5773 21.4653 0.430641 
289 2 18.836 18.836 -2.19869 
290 2 21.4653 21.4653 -2.19869 
291 2 21.4653 18.836 0.430641 
292 2 18.836 21.4653 0.430641 
293 2 24.0947 18.836 -2.19869 
294 2 26.724 21.4653 -2.19869 
295 2 26.724 18.836 0.430641 
296 2 24.0947 21.4653 0.430641 
297 2 29.3533 18.836 -2.19869 
298 2 31.9827 21.4653 -2.19869 
299 2 31.9827 18.836 0.430641 
300 2 29.3533 21.4653 0.430641 
301 2 34.612 18.836 -2.19869 
302 2 37.2413 21.4653 -2.19869 
303 2 37.2413 18.836 0.430641 
304 2 34.612 21.4653 0.430641 
305 2 39.8707 18.836 -2.19869 
306 2 42.5 21.4653 -2.19869 
307 2 42.5 18.836 0.430641 
308 2 39.8707 21.4653 0.430641 
309 2 45.1293 18.836 -2.19869 
310 2 47.7587 21.4653 -2.19869 
311 2 47.7587 18.836 0.430641 
312 2 45.1293 21.4653 0.430641 
313 2 50.388 18.836 -2.19869 
314 2 53.0173 21.4653 -2.19869 
315 2 53.0173 18.836 0.430641 
316 2 50.388 21.4653 0.430641 
317 2 55.6467 18.836 -2.19869 
318 2 58.276 21.4653 -2.19869 
319 2 58.276 18.836 0.430641 
320 2 55.6467 21.4653 0.430641 
321 2 60.9053 18.836 -2.19869 
322 2 63.5347 21.4653 -2.19869 
323 2 63.5347 18.836 0.430641 
324 2 60.9053 21.4653 0.430641 
325 2 66.164 18.836 -2.19869 
326 2 68.7933 21.4653 -2.19869 
327 2 68.7933 18.836 0.430641 
328 2 66.164 21.4653 0.430641 
329 2 71.4227 18.836 -2.19869 
330 2 74.052 21.4653 -2.19869 
331 2 74.052 18.836 0.430641 
332 2 71.4227 21.4653 0.430641 
333 2 76.6814 18.836 -2.19869 
334 2 79.3107 21.4653 -2.19869 
335 2 79.3107 18.836 0.430641 
336 2 76.6814 21.4653 0.430641 
337 2 81.94 18.836 -2.19869 
338 2 84.5694 21.4653 -2.19869 
339 2 84.5694 18.836 0.430641 
340 2 81.94 21.4653 0.430641 
341 2 -2.19869 24.0947 -2.19869 
342 2 0.430641 26.724 -2.19869 
343 2 0.430641 24.0947 0.430641 
344 2 -2.19869 26.724 0.430641 
345 2 3.05998 24.0947 -2.19869 
346 2 5.68931 26.724 -2.19869 
347 2 5.68931 24.0947 0.430641 
348 2 3.05998 26.724 0.430641 
349 2 8.31865 24.0947 -2.19869 
350 2 10.948 26.724 -2.19869 
351 2 10.948 24.0947 0.430641 
352 2 8.31865 26.724 0.430641 
353 2 13.5773 24.0947 -2.19869 
354 2 16.2067 26.724 -2.19869 
355 2 16.2067 24.0947 0.430641 
356 2 13.5773 26.724 0.430641 
357 2 18.836 24.0947 -2.19869 
358 2 21.4653 26.724 -2.19869 
359 2 21.4653 24.0947 0.430641 
360 2 18.836 26.724 0.430641 
361 2 24.0947 24.0947 -2.19869 
362 2 26.724 26.724 -2.19869 
363 2 26.724 24.0947 0.430641 
364 2 24.0947 26.724 0.430641 
365 2 29.3533 24.0947 -2.19869 
366 2 31.9827 26.724 -2.19869 
367 2 31.9827 24.0947 0.430641 
368 2 29.3533 26.724 0.430641 
369 2 34.612 24.0947 -2.19869 
370 2 37.2413 26.724 -2.19869 
371 2 37.2413 24.0947 0.430641 
372 2 34.612 26.724 0.430641 
373 2 39.8707 24.0947 -2.19869 
374 2 42.5 26.724 -2.19869 
375 2 42.5 24.0947 0.430641 
376 2 39.8707 26.724 0.430641 
377 2 45.1293 24.0947 -2.19869 
378 2 47.7587 26.724 -2.19869 
379 2 47.7587 24.0947 0.430641 
380 2 45.1293 26.724 0.430641 
381 2 50.388 24.0947 -2.19869 
382 2 53.0173 26.724 -2.19869 
383 2 53.0173 24.0947 0.430641 
384 2 50.388 26.724 0.430641 
385 2 55.6467 24.0947 -2.19869 
386 2 58.276 26.724 -2.19869 
387 2 58.276 24.0947 0.430641 
388 2 55.6467 26.724 0.430641 
389 2 60.9053 24.0947 -2.19869 
390 2 63.5347 26.724 -2.19869 
391 2 63.5347 24.0947 0.430641 
392 2 60.9053 26.724 0.430641 
393 2 66.164 24.0947 -2.19869 
394 2 68.7933 26.724 -2.19869 
395 2 68.7933 24.0947 0.430641 
396 2 66.164 26.724 0.430641 
397 2 71.4227 24.0947 -2.19869 
398 2 74.052 26.724 -2.19869 
399 2 74.052 24.0947 0.430641 
400 2 71.4227 26.724 0.430641 
401 2 76.6814 24.0947 -2.19869 
402 2 79.3107 26.724 -2.19869 
403 2 79.3107 24.0947 0.430641 
404 2 76.6814 26.724 0.430641 
405 2 81.94 24.0947 -2.19869 
406 2 84.5694 26.724 -2.19869 
407 2 84.5694 24.0947 0.430641 
408 2 81.94 26.724 0.430641 
409 2 -2.19869 29.3533 -2.19869 
410 2 0.430641 31.9827 -2.19869 
411 2 0.430641 29.3533 0.430641 
412 2 -2.19869 31.9827 0.430641 
413 2 3.05998 29.3533 -2.19869 
414 2 5.68931 31.9827 -2.19869 
415 2 5.68931 29.3533 0.430641 
416 2 3.05998 31.9827 0.430641 
417 2 8.31865 29.3533 -2.19869 
418 2 10.948 31.9827 -2.19869 
419 2 10.948 29.3533 0.430641 
420 2 8.31865 31.9827 0.430641 
421 2 13.5773 29.3533 -2.19869 
422 2 16.2067 31.9827 -2.19869 
423 2 16.2067 29.3533 0.430641 
424 2 13.5773 31.9827 0.430641 
425 2 18.836 29.3533 -2.19869 
426 2 21.4653 31.9827 -2.19869 
427 2 21.4653 29.3533 0.430641 
428 2 18.836 31.9827 0.430641 
429 2 24.0947 29.3533 -2.19869 
430 2 26.724 31.9827 -2.19869 
431 2 26.724 29.3533 0.430641 
432 2 24.0947 31.9827 0.430641 
433 2 29.3533 29.3533 -2.19869 
434 2 31.9827 31.9827 -2.19869 
435 2 31.9827 29.3533 0.430641 
436 2 29.3533 31.9827 0.430641 
437 2 34.612 29.3533 -2.19869 
438 2 37.2413 31.9827 -2.19869 
439 2 37.2413 29.3533 0.430641 
440 2 34.612 31.9827 0.430641 
441 2 39.8707 29.3533 -2.19869 
442 2 42.5 31.9827 -2.19869 
443 2 42.5 29.3533 0.430641 
444 2 39.8707 31.9827 0.430641 
445 2 45.1293 29.3533 -2.19869 
446 2 47.7587 31.9827 -2.19869 
447 2 47.7587 29.3533 0.430641 
448 2 45.1293 31.9827 0.430641 
449 2 50.388 29.3533 -2.19869 
450 2 53.0173 31.9827 -2.19869 
451 2 53.0173 29.3533 0.430641 
452 2 50.388 31.9827 0.430641 
453 2 55.6467 29.3533 -2.19869 
454 2 58.276 31.9827 -2.19869 
455 2 58.276 29.3533 0.430641 
456 2 55.6467 31.9827 0.430641 
457 2 60.9053 29.3533 -2.19869 
458 2 63.5347 31.9827 -2.19869 
459 2 63.5347 29.3533 0.430641 
460 2 60.9053 31.9827 0.430641 
461 2 66.164 29.3533 -2.19869 
462 2 68.7933 31.9827 -2.19869 
463 2 68.7933 29.3533 0.430641 
464 2 66.164 31.9827 0.430641 
465 2 71.4227 29.3533 -2.19869 
466 2 74.052 31.9827 -2.19869 
467 2 74.052 29.3533 0.430641 
468 2 71.4227 31.9827 0.430641 
469 2 76.6814 29.3533 -2.19869 
470 2 79.3107 31.9827 -2.19869 
471 2 79.3107 29.3533 0.430641 
472 2 76.6814 31.9827 0.430641 
473 2 81.94 29.3533 -2.19869 
474 2 84.5694 31.9827 -2.19869 
475 2 84.5694 29.3533 0.430641 
476 2 81.94 31.9827 0.430641 
477 2 -2.19869 34.612 -2.19869 
478 2 0.430641 37.2413 -2.19869 
479 2 0.430641 34.612 0.430641 
480 2 -2.19869 37.2413 0.430641 
481 2 3.05998 34.612 -2.19869 
482 2 5.68931 37.2413 -2.19869 
483 2 5.68931 34.612 0.430641 
484 2 3.05998 37.2413 0.430641 
485 2 8.31865 34.612 -2.19869 
486 2 10.948 37.2413 -2.19869 
487 2 10.948 34.612 0.430641 
488 2 8.31865 37.2413 0.430641 
489 2 13.5773 34.612 -2.19869 
490 2 16.2067 37.2413 -2.19869 
491 2 16.2067 34.612 0.430641 
492 2 13.5773 37.2413 0.430641 
493 2 18.836 34.612 -2.19869 
494 2 21.4653 37.2413 -2.19869 
495 2 21.4653 34.612 0.430641 
496 2 18.836 37.2413 0.430641 
497 2 24.0947 34.612 -2.19869 
498 2 26.724 37.2413 -2.19869 
499 2 26.724 34.612 0.430641 
500 2 24.0947 37.2413 0.430641 
501 2 29.3533 34.612 -2.19869 
502 2 31.9827 37.2413 -2.19869 
503 2 31.9827 34.612 0.430641 
504 2 29.3533 37.2413 0.430641 
505 2 34.612 34.612 -2.19869 
506 2 37.2413 37.2413 -2.19869 
507 2 37.2413 34.612 0.430641 
508 2 34.612 37.2413 0.430641 
509 2 39.8707 34.612 -2.19869 
510 2 42.5 37.2413 -2.19869 
511 2 42.5 34.612 0.430641 
512 2 39.8707 37.2413 0.430641 
513 2 45.1293 34.612 -2.19869 
514 2 47.7587 37.2413 -2.19869 
515 2 47.7587 34.612 0.430641 
516 2 45.1293 37.2413 0.430641 
517 2 50.388 34.612 -2.19869 
518 2 53.0173 37.2413 -2.19869 
519 2 53.0173 34.612 0.430641 
520 2 50.388 37.2413 0.430641 
521 2 55.6467 34.612 -2.19869 
522 2 58.276 37.2413 -2.19869 
523 2 58.276 34.612 0.430641 
524 2 55.6467 37.2413 0.430641 
525 2 60.9053 34.612 -2.19869 
526 2 63.5347 37.2413 -2.19869 
527 2 63.5347 34.612 0.430641 
528 2 60.9053 37.2413 0.430641 
529 2 66.164 34.612 -2.19869 
530 2 68.7933 37.2413 -2.19869 
531 2 68.7933 34.612 0.430641 
532 2 66.164 37.2413 0.430641 
533 2 71.4227 34.612 -2.19869 
534 2 74.052 37.2413 -2.19869 
535 2 74.052 34.612 0.430641 
536 2 71.4227 37.2413 0.430641 
537 2 76.6814 34.612 -2.19869 
538 2 79.3107 37.2413 -2.19869 
539 2 79.3107 34.612 0.430641 
540 2 76.6814 37.2413 0.430641 
541 2 81.94 34.612 -2.19869 
542 2 84.5694 37.2413 -2.19869 
543 2 84.5694 34.612 0.430641 
544 2 81.94 37.2413 0.430641 
545 2 -2.19869 39.8707 -2.19869 
546 2 0.430641 42.5 -2.19869 
547 2 0.430641 39.8707 0.430641 
548 2 -2.19869 42.5 0.430641 
549 2 3.05998 39.8707 -2.19869 
550 2 5.68931 42.5 -2.19869 
551 2 5.68931 39.8707 0.430641 
552 2 3.05998 42.5 0.430641 
553 2 8.31865 39.8707 -2.19869 
554 2 10.948 42.5 -2.19869 
555 2 10.948 39.8707 0.430641 
556 2 8.31865 42.5 0.430641 
557 2 13.5773 39.8707 -2.19869 
558 2 16.2067 42.5 -2.19869 
559 2 16.2067 39.8707 0.430641 
560 2 13.5773 42.5 0.430641 
561 2 18.836 39.8707 -2.19869 
562 2 21.4653 42.5 -2.19869 
563 2 21.4653 39.8707 0.430641 
564 2 18.836 42.5 0.430641 
565 2 24.0947 39.8707 -2.19869 
566 2 26.724 42.5 -2.19869 
567 2 26.724 39.8707 0.430641 
568 2 24.0947 42.5 0.430641 
569 2 29.3533 39.8707 -2.19869 
570 2 31.9827 42.5 -2.19869 
571 2 31.9827 39.8707 0.430641 
572 2 29.3533 42.5 0.430641 
573 2 34.612 39.8707 -2.19869 
574 2 37.2413 42.5 -2.19869 
575 2 37.2413 39.8707 0.430641 
576 2 34.612 42.5 0.430641 
577 2 39.8707 39.8707 -2.19869 
578 2 42.5 42.5 -2.19869 
579 2 42.5 39.8707 0.430641 
580 2 39.8707 42.5 0.430641 
581 2 45.1293 39.8707 -2.19869 
582 2 47.7587 42.5 -2.19869 
583 2 47.7587 39.8707 0.430641 
584 2 45.1293 42.5 0.430641 
585 2 50.388 39.8707 -2.19869 
586 2 53.0173 42.5 -2.19869 
587 2 53.0173 39.8707 0.430641 
588 2 50.388 42.5 0.430641 
589 2 55.6467 39.8707 -2.19869 
590 2 58.276 42.5 -2.19869 
591 2 58.276 39.8707 0.430641 
592 2 55.6467 42.5 0.430641 
593 2 60.9053 39.8707 -2.19869 
594 2 63.5347 42.5 -2.19869 
595 2 63.5347 39.8707 0.430641 
596 2 60.9053 42.5 0.430641 
597 2 66.164 39.8707 -2.19869 
598 2 68.7933 42.5 -2.19869 
599 2 68.7933 39.8707 0.430641 
600 2 66.164 42.5 0.430641 
601 2 71.4227 39.8707 -2.19869 
602 2 74.052 42.5 -2.19869 
603 2 74.052 39.8707 0.430641 
604 2 71.4227 42.5 0.430641 
605 2 76.6814 39.8707 -2.19869 
606 2 79.3107 42.5 -2.19869 
607 2 79.3107 39.8707 0.430641 
608 2 76.6814 42.5 0.430641 
609 2 81.94 39.8707 -2.19869 
610 2 84.5694 42.5 -2.19869 
611 2 84.5694 39.8707 0.430641 
612 2 81.94 42.5 0.430641 
613 2 -2.19869 45.1293 -2.19869 
614 2 0.430641 47.7587 -2.19869 
615 2 0.430641 45.1293 0.430641 
616 2 -2.19869 47.7587 0.430641 
617 2 3.05998 45.1293 -2.19869 
618 2 5.68931 47.7587 -2.19869 
619 2 5.68931 45.1293 0.430641 
620 2 3.05998 47.7587 0.430641 
621 2 8.31865 45.1293 -2.19869 
622 2 10.948 47.7587 -2.19869 
623 2 10.948 45.1293 0.430641 
624 2 8.31865 47.7587 0.430641 
625 2 13.5773 45.1293 -2.19869 
626 2 16.2067 47.7587 -2.19869 
627 2 16.2067 45.1293 0.430641 
628 2 13.5773 47.7587 0.430641 
629 2 18.836 45.1293 -2.19869 
630 2 21.4653 47.7587 -2.19869 
631 2 21.4653 45.1293 0.430641 
632 2 18.836 47.7587 0.430641 
633 2 24.0947 45.1293 -2.19869 
634 2 26.724 47.7587 -2.19869 
635 2 26.724 45.1293 0.430641 
636 2 24.0947 47.7587 0.430641 
637 2 29.3533 45.1293 -2.19869 
638 2 31.9827 47.7587 -2.19869 
639 2 31.9827 45.1293 0.430641 
640 2 29.3533 47.7587 0.430641 
641 2 34.612 45.1293 -2.19869 
642 2 37.2413 47.7587 -2.19869 
643 2 37.2413 45.1293 0.430641 
644 2 34.612 47.7587 0.430641 
645 2 39.8707 45.1293 -2.19869 
646 2 42.5 47.7587 -2.19869 
647 2 42.5 45.1293 0.430641 
648 2 39.8707 47.7587 0.430641 
649 2 45.1293 45.1293 -2.19869 
650 2 47.7587 47.7587 -2.19869 
651 2 47.7587 45.1293 0.430641 
652 2 45.1293 47.7587 0.430641 
653 2 50.388 45.1293 -2.19869 
654 2 53.0173 47.7587 -2.19869 
655 2 53.0173 45.1293 0.430641 
656 2 50.388 47.7587 0.430641 
657 2 55.6467 45.1293 -2.19869 
658 2 58.276 47.7587 -2.19869 
659 2 58.276 45.1293 0.430641 
660 2 55.6467 47.7587 0.430641 
661 2 60.9053 45.1293 -2.19869 
662 2 63.5347 47.7587 -2.19869 
663 2 63.5347 45.1293 0.430641 
664 2 60.9053 47.7587 0.430641 
665 2 66.164 45.1293 -2.19869 
666 2 68.7933 47.7587 -2.19869 
667 2 68.7933 45.1293 0.430641 
668 2 66.164 47.7587 0.430641 
669 2 71.4227 45.1293 -2.19869 
670 2 74.052 47.7587 -2.19869 
671 2 74.052 45.1293 0.430641 
672 2 71.4227 47.7587 0.430641 
673 2 76.6814 45.1293 -2.19869 
674 2 79.3107 47.7587 -2.19869 
675 2 79.3107 45.1293 0.430641 
676 2 76.6814 47.7587 0.430641 
677 2 81.94 45.1293 -2.19869 
678 2 84.5694 47.7587 -2.19869 
679 2 84.5694 45.1293 0.430641 
680 2 81.94 47.7587 0.430641 
681 2 -2.19869 50.388 -2.19869 
682 2 0.430641 53.0173 -2.19869 
683 2 0.430641 50.388 0.430641 
684 2 -2.19869 53.0173 0.430641 
685 2 3.05998 50.388 -2.19869 
686 2 5.68931 53.0173 -2.19869 
687 2 5.68931 50.388 0.430641 
688 2 3.05998 53.0173 0.430641 
689 2 8.31865 50.388 -2.19869 
690 2 10.948 53.0173 -2.19869 
691 2 10.948 50.388 0.430641 
692 2 8.31865 53.0173 0.430641 
693 2 13.5773 50.388 -2.19869 
694 2 16.2067 53.0173 -2.19869 
695 2 16.2067 50.388 0.430641 
696 2 13.5773 53.0173 0.430641 
697 2 18.836 50.388 -2.19869 
698 2 21.4653 53.0173 -2.19869 
699 2 21.4653 50.388 0.430641 
700 2 18.836 53.0173 0.430641 
701 2 24.0947 50.388 -2.19869 
702 2 26.724 53.0173 -2.19869 
703 2 26.724 50.388 0.430641 
704 2 24.0947 53.0173 0.430641 
705 2 29.3533 50.388 -2.19869 
706 2 31.9827 53.0173 -2.19869 
707 2 31.9827 50.388 0.430641 
708 2 29.3533 53.0173 0.430641 
709 2 34.612 50.388 -2.19869 
710 2 37.2413 53.0173 -2.19869 
711 2 37.2413 50.388 0.430641 
712 2 34.612 53.0173 0.430641 
713 2 39.8707 50.388 -2.19869 
714 2 42.5 53.0173 -2.19869 
715 2 42.5 50.388 0.430641 
716 2 39.8707 53.0173 0.430641 
717 2 45.1293 50.388 -2.19869 
718 2 47.7587 53.0173 -2.19869 
719 2 47.7587 50.388 0.430641 
720 2 45.1293 53.0173 0.430641 
721 2 50.388 50.388 -2.19869 
722 2 53.0173 53.0173 -2.19869 
723 2 53.0173 50.388 0.430641 
724 2 50.388 53.0173 0.430641 
725 2 55.6467 50.388 -2.19869 
726 2 58.276 53.0173 -2.19869 
727 2 58.276 50.388 0.430641 
728 2 55.6467 53.0173 0.430641 
729 2 60.9053 50.388 -2.19869 
730 2 63.5347 53.0173 -2.19869 
731 2 63.5347 50.388 0.430641 
732 2 60.9053 53.0173 0.430641 
733 2 66.164 50.388 -2.19869 
734 2 68.7933 53.0173 -2.19869 
735 2 68.7933 50.388 0.430641 
736 2 66.164 53.0173 0.430641 
737 2 71.4227 50.388 -2.19869 
738 2 74.052 53.0173 -2.19869 
739 2 74.052 50.388 0.430641 
740 2 71.4227 53.0173 0.430641 
741 2 76.6814 50.388 -2.19869 
742 2 79.3107 53.0173 -2.19869 
743 2 79.3107 50.388 0.430641 
744 2 76.6814 53.0173 0.430641 
745 2 81.94 50.388 -2.19869 
746 2 84.5694 53.0173 -2.19869 
747 2 84.5694 50.388 0.430641 
748 2 81.94 53.0173 0.430641 
749 2 -2.19869 55.6467 -2.19869 
750 2 0.430641 58.276 -2.19869 
751 2 0.430641 55.6467 0.430641 
752 2 -2.19869 58.276 0.430641 
753 2 3.05998 55.6467 -2.19869 
754 2 5.68931 58.276 -2.19869 
755 2 5.68931 55.6467 0.430641 
756 2 3.05998 58.276 0.430641 
757 2 8.31865 55.6467 -2.19869 
758 2 10.948 58.276 -2.19869 
759 2 10.948 55.6467 0.430641 
760 2 8.31865 58.276 0.430641 
761 2 13.5773 55.6467 -2.19869 
762 2 16.2067 58.276 -2.19869 
763 2 16.2067 55.6467 0.430641 
764 2 13.5773 58.276 0.430641 
765 2 18.836 55.6467 -2.19869 
766 2 21.4653 58.276 -2.19869 
767 2 21.4653 55.6467 0.430641 
768 2 18.836 58.276 0.430641 
769 2 24.0947 55.6467 -2.19869 
770 2 26.724 58.276 -2.19869 
771 2 26.724 55.6467 0.430641 
772 2 24.0947 58.276 0.430641 
773 2 29.3533 55.6467 -2.19869 
774 2 31.9827 58.276 -2.19869 
775 2 31.9827 55.6467 0.430641 
776 2 29.3533 58.276 0.430641 
777 2 34.612 55.6467 -2.19869 
778 2 37.2413 58.276 -2.19869 
779 2 37.2413 55.6467 0.430641 
780 2 34.612 58.276 0.430641 
781 2 39.8707 55.6467 -2.19869 
782 2 42.5 58.276 -2.19869 
783 2 42.5 55.6467 0.430641 
784 2 39.8707 58.276 0.430641 
785 2 45.1293 55.6467 -2.19869 
786 2 47.7587 58.276 -2.19869 
787 2 47.7587 55.6467 0.430641 
788 2 45.1293 58.276 0.430641 
789 2 50.388 55.6467 -2.19869 
790 2 53.0173 58.276 -2.19869 
791 2 53.0173 55.6467 0.430641 
792 2 50.388 58.276 0.430641 
793 2 55.6467 55.6467 -2.19869 
794 2 58.276 58.276 -2.19869 
795 2 58.276 55.6467 0.430641 
796 2 55.6467 58.276 0.430641 
797 2 60.9053 55.6467 -2.19869 
798 2 63.5347 58.276 -2.19869 
799 2 63.5347 55.6467 0.430641 
800 2 60.9053 58.276 0.430641 
801 2 66.164 55.6467 -2.19869 
802 2 68.7933 58.276 -2.19869 
803 2 68.7933 55.6467 0.430641 
804 2 66.164 58.276 0.430641 
805 2 71.4227 55.6467 -2.19869 
806 2 74.052 58.276 -2.19869 
807 2 74.052 55.6467 0.430641 
808 2 71.4227 58.276 0.430641 
809 2 76.6814 55.6467 -2.19869 
810 2 79.3107 58.276 -2.19869 
811 2 79.3107 55.6467 0.430641 
812 2 76.6814 58.276 0.430641 
813 2 81.94 55.6467 -2.19869 
814 2 84.5694 58.276 -2.19869 
815 2 84.5694 55.6467 0.430641 
816 2 81.94 58.276 0.430641 
817 2 -2.19869 60.9053 -2.19869 
818 2 0.430641 63.5347 -2.19869 
819 2 0.430641 60.9053 0.430641 
820 2 -2.19869 63.5347 0.430641 
821 2 3.05998 60.9053 -2.19869 
822 2 5.68931 63.5347 -2.19869 
823 2 5.68931 60.9053 0.430641 
824 2 3.05998 63.5347 0.430641 
825 2 8.31865 60.9053 -2.19869 
826 2 10.948 63.5347 -2.19869 
827 2 10.948 60.9053 0.430641 
828 2 8.31865 63.5347 0.430641 
829 2 13.5773 60.9053 -2.19869 
830 2 16.2067 63.5347 -2.19869 
831 2 16.2067 60.9053 0.430641 
832 2 13.5773 63.5347 0.430641 
833 2 18.836 60.9053 -2.19869 
834 2 21.4653 63.5347 -2.19869 
835 2 21.4653 60.9053 0.430641 
836 2 18.836 63.5347 0.430641 
837 2 24.0947 60.9053 -2.19869 
838 2 26.724 63.5347 -2.19869 
839 2 26.724 60.9053 0.430641 
840 2 24.0947 63.5347 0.430641 
841 2 29.3533 60.9053 -2.19869 
842 2 31.9827 63.5347 -2.19869 
843 2 31.9827 60.9053 0.430641 
844 2 29.3533 63.5347 0.430641 
845 2 34.612 60.9053 -2.19869 
846 2 37.2413 63.5347 -2.19869 
847 2 37.2413 60.9053 0.430641 
848 2 34.612 63.5347 0.430641 
849 2 39.8707 60.9053 -2.19869 
850 2 42.5 63.5347 -2.19869 
851 2 42.5 60.9053 0.430641 
852 2 39.8707 63.5347 0.430641 
853 2 45.1293 60.9053 -2.19869 
854 2 47.7587 63.5347 -2.19869 
855 2 47.7587 60.9053 0.430641 
856 2 45.1293 63.5347 0.430641 
857 2 50.388 60.9053 -2.19869 
858 2 53.0173 63.5347 -2.19869 
859 2 53.0173 60.9053 0.430641 
860 2 50.388 63.5347 0.430641 
861 2 55.6467 60.9053 -2.19869 
862 2 58.276 63.5347 -2.19869 
863 2 58.276 60.9053 0.430641 
864 2 55.6467 63.5347 0.430641 
865 2 60.9053 60.9053 -2.19869 
866 2 63.5347 63.5347 -2.19869 
867 2 63.5347 60.9053 0.430641 
868 2 60.9053 63.5347 0.430641 
869 2 66.164 60.9053 -2.19869 
870 2 68.7933 63.5347 -2.19869 
871 2 68.7933 60.9053 0.430641 
872 2 66.164 63.5347 0.430641 
873 2 71.4227 60.9053 -2.19869 
874 2 74.052 63.5347 -2.19869 
875 2 74.052 60.9053 0.430641 
876 2 71.4227 63.5347 0.430641 
877 2 76.6814 60.9053 -2.19869 
878 2 79.3107 63.5347 -2.19869 
879 2 79.3107 60.9053 0.430641 
880 2 76.6814 63.5347 0.430641 
881 2 81.94 60.9053 -2.19869 
882 2 84.5694 63.5347 -2.19869 
883 2 84.5694 60.9053 0.430641 
884 2 81.94 63.5347 0.430641 
885 2 -2.19869 66.164 -2.19869 
886 2 0.430641 68.7933 -2.19869 
887 2 0.430641 66.164 0.430641 
888 2 -2.19869 68.7933 0.430641 
889 2 3.05998 66.164 -2.19869 
890 2 5.68931 68.7933 -2.19869 
891 2 5.68931 66.164 0.430641 
892 2 3.05998 68.7933 0.430641 
893 2 8.31865 66.164 -2.19869 
894 2 10.948 68.7933 -2.19869 
895 2 10.948 66.164 0.430641 
896 2 8.31865 68.7933 0.430641 
897 2 13.5773 66.164 -2.19869 
898 2 16.2067 68.7933 -2.19869 
899 2 16.2067 66.164 0.430641 
900 2 13.5773 68.7933 0.430641 
901 2 18.836 66.164 -2.19869 
902 2 21.4653 68.7933 -2.19869 
903 2 21.4653 66.164 0.430641 
904 2 18.836 68.7933 0.430641 
905 2 24.0947 66.164 -2.19869 
906 2 26.724 68.7933 -2.19869 
907 2 26.724 66.164 0.430641 
908 2 24.0947 68.7933 0.430641 
909 2 29.3533 66.164 -2.19869 
910 2 31.9827 68.7933 -2.19869 
911 2 31.9827 66.164 0.430641 
912 2 29.3533 68.7933 0.430641 
913 2 34.612 66.164 -2.19869 
914 2 37.2413 68.7933 -2.19869 
915 2 37.2413 66.164 0.430641 
916 2 34.612 68.7933 0.430641 
917 2 39.8707 66.164 -2.19869 
918 2 42.5 68.7933 -2.19869 
919 2 42.5 66.164 0.430641 
920 2 39.8707 68.7933 0.430641 
921 2 45.1293 66.164 -2.19869 
922 2 47.7587 68.7933 -2.19869 
923 2 47.7587 66.164 0.430641 
924 2 45.1293 68.7933 0.430641 
925 2 50.388 66.164 -2.19869 
926 2 53.0173 68.7933 -2.19869 
927 2 53.0173 66.164 0.430641 
928 2 50.388 68.7933 0.430641 
929 2 55.6467 66.164 -2.19869 
930 2 58.276 68.7933 -2.19869 
931 2 58.276 66.164 0.430641 
932 2 55.6467 68.7933 0.430641 
933 2 60.9053 66.164 -2.19869 
934 2 63.5347 68.7933 -2.19869 
935 2 63.5347 66.164 0.430641 
936 2 60.9053 68.7933 0.430641 
937 2 66.164 66.164 -2.19869 
938 2 68.7933 68.7933 -2.19869 
939 2 68.7933 66.164 0.430641 
940 2 66.164 68.7933 0.430641 
941 2 71.4227 66.164 -2.19869 
942 2 74.052 68.7933 -2.19869 
943 2 74.052 66.164 0.430641 
944 2 71.4227 68.7933 0.430641 
945 2 76.6814 66.164 -2.19869 
946 2 79.3107 68.7933 -2.19869 
947 2 79.3107 66.164 0.430641 
948 2 76.6814 68.7933 0.430641 
949 2 81.94 66.164 -2.19869 
950 2 84.5694 68.7933 -2.19869 
951 2 84.5694 66.164 0.430641 