ITEM: TIMESTEP
77
ITEM: NUMBER OF ATOMS
9826
ITEM: BOX BOUNDS pp pp pp
1.5744226397656083e+01 6.9255773602343567e+01
1.5744226397656083e+01 6.9255773602343567e+01
1.5744226397656083e+01 6.9255773602343567e+01
ITEM: ATOMS id type xu yu zu 
1 2 15.7442 15.7442 15.7442 
2 2 17.3181 17.3181 17.3181 
3 2 18.892 15.7442 15.7442 
4 2 20.4658 17.3181 17.3181 
5 2 22.0397 15.7442 15.7442 
6 2 23.6136 17.3181 17.3181 
7 2 25.1874 15.7442 15.7442 
8 2 26.7613 17.3181 17.3181 
9 2 28.3352 15.7442 15.7442 
10 2 29.909 17.3181 17.3181 
11 2 31.4829 15.7442 15.7442 
12 2 33.0568 17.3181 17.3181 
13 2 34.6307 15.7442 15.7442 
14 2 36.2045 17.3181 17.3181 
15 2 37.7784 15.7442 15.7442 
16 2 39.3523 17.3181 17.3181 
17 2 40.9261 15.7442 15.7442 
18 2 42.5 17.3181 17.3181 
19 2 44.0739 15.7442 15.7442 
20 2 45.6477 17.3181 17.3181 
21 2 47.2216 15.7442 15.7442 
22 2 48.7955 17.3181 17.3181 
23 2 50.3693 15.7442 15.7442 
24 2 51.9432 17.3181 17.3181 
25 2 53.5171 15.7442 15.7442 
26 2 55.091 17.3181 17.3181 
27 2 56.6648 15.7442 15.7442 
28 2 58.2387 17.3181 17.3181 
29 2 59.8126 15.7442 15.7442 
30 2 61.3864 17.3181 17.3181 
31 2 62.9603 15.7442 15.7442 
32 2 64.5342 17.3181 17.3181 
33 2 66.108 15.7442 15.7442 
34 2 67.6819 17.3181 17.3181 
35 2 15.7442 18.892 15.7442 
36 2 17.3181 20.4658 17.3181 
37 2 18.892 18.892 15.7442 
38 2 20.4658 20.4658 17.3181 
39 2 22.0397 18.892 15.7442 
40 2 23.6136 20.4658 17.3181 
41 2 25.1874 18.892 15.7442 
42 2 26.7613 20.4658 17.3181 
43 2 28.3352 18.892 15.7442 
44 2 29.909 20.4658 17.3181 
45 2 31.4829 18.892 15.7442 
46 2 33.0568 20.4658 17.3181 
47 2 34.6307 18.892 15.7442 
48 2 36.2045 20.4658 17.3181 
49 2 37.7784 18.892 15.7442 
50 2 39.3523 20.4658 17.3181 
51 2 40.9261 18.892 15.7442 
52 2 42.5 20.4658 17.3181 
53 2 44.0739 18.892 15.7442 
54 2 45.6477 20.4658 17.3181 
55 2 47.2216 18.892 15.7442 
56 2 48.7955 20.4658 17.3181 
57 2 50.3693 18.892 15.7442 
58 2 51.9432 20.4658 17.3181 
59 2 53.5171 18.892 15.7442 
60 2 55.091 20.4658 17.3181 
61 2 56.6648 18.892 15.7442 
62 2 58.2387 20.4658 17.3181 
63 2 59.8126 18.892 15.7442 
64 2 61.3864 20.4658 17.3181 
65 2 62.9603 18.892 15.7442 
66 2 64.5342 20.4658 17.3181 
67 2 66.108 18.892 15.7442 
68 2 67.6819 20.4658 17.3181 
69 2 15.7442 22.0397 15.7442 
70 2 17.3181 23.6136 17.3181 
71 2 18.892 22.0397 15.7442 
72 2 20.4658 23.6136 17.3181 
73 2 22.0397 22.0397 15.7442 
74 2 23.6136 23.6136 17.3181 
75 2 25.1874 22.0397 15.7442 
76 2 26.7613 23.6136 17.3181 
77 2 28.3352 22.0397 15.7442 
78 2 29.909 23.6136 17.3181 
79 2 31.4829 22.0397 15.7442 
80 2 33.0568 23.6136 17.3181 
81 2 34.6307 22.0397 15.7442 
82 2 36.2045 23.6136 17.3181 
83 2 37.7784 22.0397 15.7442 
84 2 39.3523 23.6136 17.3181 
85 2 40.9261 22.0397 15.7442 
86 2 42.5 23.6136 17.3181 
87 2 44.0739 22.0397 15.7442 
88 2 45.6477 23.6136 17.3181 
89 2 47.2216 22.0397 15.7442 
90 2 48.7955 23.6136 17.3181 
91 2 50.3693 22.0397 15.7442 
92 2 51.9432 23.6136 17.3181 
93 2 53.5171 22.0397 15.7442 
94 2 55.091 23.6136 17.3181 
95 2 56.6648 22.0397 15.7442 
96 2 58.2387 23.6136 17.3181 
97 2 59.8126 22.0397 15.7442 
98 2 61.3864 23.6136 17.3181 
99 2 62.9603 22.0397 15.7442 
100 2 64.5342 23.6136 17.3181 
101 2 66.108 22.0397 15.7442 
102 2 67.6819 23.6136 17.3181 
103 2 15.7442 25.1874 15.7442 
104 2 17.3181 26.7613 17.3181 
105 2 18.892 25.1874 15.7442 
106 2 20.4658 26.7613 17.3181 
107 2 22.0397 25.1874 15.7442 
108 2 23.6136 26.7613 17.3181 
109 2 25.1874 25.1874 15.7442 
110 2 26.7613 26.7613 17.3181 
111 2 28.3352 25.1874 15.7442 
112 2 29.909 26.7613 17.3181 
113 2 31.4829 25.1874 15.7442 
114 2 33.0568 26.7613 17.3181 
115 2 34.6307 25.1874 15.7442 
116 2 36.2045 26.7613 17.3181 
117 2 37.7784 25.1874 15.7442 
118 2 39.3523 26.7613 17.3181 
119 2 40.9261 25.1874 15.7442 
120 2 42.5 26.7613 17.3181 
121 2 44.0739 25.1874 15.7442 
122 2 45.6477 26.7613 17.3181 
123 2 47.2216 25.1874 15.7442 
124 2 48.7955 26.7613 17.3181 
125 2 50.3693 25.1874 15.7442 
126 2 51.9432 26.7613 17.3181 
127 2 53.5171 25.1874 15.7442 
128 2 55.091 26.7613 17.3181 
129 2 56.6648 25.1874 15.7442 
130 2 58.2387 26.7613 17.3181 
131 2 59.8126 25.1874 15.7442 
132 2 61.3864 26.7613 17.3181 
133 2 62.9603 25.1874 15.7442 
134 2 64.5342 26.7613 17.3181 
135 2 66.108 25.1874 15.7442 
136 2 67.6819 26.7613 17.3181 
137 2 15.7442 28.3352 15.7442 
138 2 17.3181 29.909 17.3181 
139 2 18.892 28.3352 15.7442 
140 2 20.4658 29.909 17.3181 
141 2 22.0397 28.3352 15.7442 
142 2 23.6136 29.909 17.3181 
143 2 25.1874 28.3352 15.7442 
144 2 26.7613 29.909 17.3181 
145 2 28.3352 28.3352 15.7442 
146 2 29.909 29.909 17.3181 
147 2 31.4829 28.3352 15.7442 
148 2 33.0568 29.909 17.3181 
149 2 34.6307 28.3352 15.7442 
150 2 36.2045 29.909 17.3181 
151 2 37.7784 28.3352 15.7442 
152 2 39.3523 29.909 17.3181 
153 2 40.9261 28.3352 15.7442 
154 2 42.5 29.909 17.3181 
155 2 44.0739 28.3352 15.7442 
156 2 45.6477 29.909 17.3181 
157 2 47.2216 28.3352 15.7442 
158 2 48.7955 29.909 17.3181 
159 2 50.3693 28.3352 15.7442 
160 2 51.9432 29.909 17.3181 
161 2 53.5171 28.3352 15.7442 
162 2 55.091 29.909 17.3181 
163 2 56.6648 28.3352 15.7442 
164 2 58.2387 29.909 17.3181 
165 2 59.8126 28.3352 15.7442 
166 2 61.3864 29.909 17.3181 
167 2 62.9603 28.3352 15.7442 
168 2 64.5342 29.909 17.3181 
169 2 66.108 28.3352 15.7442 
170 2 67.6819 29.909 17.3181 
171 2 15.7442 31.4829 15.7442 
172 2 17.3181 33.0568 17.3181 
173 2 18.892 31.4829 15.7442 
174 2 20.4658 33.0568 17.3181 
175 2 22.0397 31.4829 15.7442 
176 2 23.6136 33.0568 17.3181 
177 2 25.1874 31.4829 15.7442 
178 2 26.7613 33.0568 17.3181 
179 2 28.3352 31.4829 15.7442 
180 2 29.909 33.0568 17.3181 
181 2 31.4829 31.4829 15.7442 
182 2 33.0568 33.0568 17.3181 
183 2 34.6307 31.4829 15.7442 
184 2 36.2045 33.0568 17.3181 
185 2 37.7784 31.4829 15.7442 
186 2 39.3523 33.0568 17.3181 
187 2 40.9261 31.4829 15.7442 
188 2 42.5 33.0568 17.3181 
189 2 44.0739 31.4829 15.7442 
190 2 45.6477 33.0568 17.3181 
191 2 47.2216 31.4829 15.7442 
192 2 48.7955 33.0568 17.3181 
193 2 50.3693 31.4829 15.7442 
194 2 51.9432 33.0568 17.3181 
195 2 53.5171 31.4829 15.7442 
196 2 55.091 33.0568 17.3181 
197 2 56.6648 31.4829 15.7442 
198 2 58.2387 33.0568 17.3181 
199 2 59.8126 31.4829 15.7442 
200 2 61.3864 33.0568 17.3181 
201 2 62.9603 31.4829 15.7442 
202 2 64.5342 33.0568 17.3181 
203 2 66.108 31.4829 15.7442 
204 2 67.6819 33.0568 17.3181 
205 2 15.7442 34.6307 15.7442 
206 2 17.3181 36.2045 17.3181 
207 2 18.892 34.6307 15.7442 
208 2 20.4658 36.2045 17.3181 
209 2 22.0397 34.6307 15.7442 
210 2 23.6136 36.2045 17.3181 
211 2 25.1874 34.6307 15.7442 
212 2 26.7613 36.2045 17.3181 
213 2 28.3352 34.6307 15.7442 
214 2 29.909 36.2045 17.3181 
215 2 31.4829 34.6307 15.7442 
216 2 33.0568 36.2045 17.3181 
217 2 34.6307 34.6307 15.7442 
218 2 36.2045 36.2045 17.3181 
219 2 37.7784 34.6307 15.7442 
220 2 39.3523 36.2045 17.3181 
221 2 40.9261 34.6307 15.7442 
222 2 42.5 36.2045 17.3181 
223 2 44.0739 34.6307 15.7442 
224 2 45.6477 36.2045 17.3181 
225 2 47.2216 34.6307 15.7442 
226 2 48.7955 36.2045 17.3181 
227 2 50.3693 34.6307 15.7442 
228 2 51.9432 36.2045 17.3181 
229 2 53.5171 34.6307 15.7442 
230 2 55.091 36.2045 17.3181 
231 2 56.6648 34.6307 15.7442 
232 2 58.2387 36.2045 17.3181 
233 2 59.8126 34.6307 15.7442 
234 2 61.3864 36.2045 17.3181 
235 2 62.9603 34.6307 15.7442 
236 2 64.5342 36.2045 17.3181 
237 2 66.108 34.6307 15.7442 
238 2 67.6819 36.2045 17.3181 
239 2 15.7442 37.7784 15.7442 
240 2 17.3181 39.3523 17.3181 
241 2 18.892 37.7784 15.7442 
242 2 20.4658 39.3523 17.3181 
243 2 22.0397 37.7784 15.7442 
244 2 23.6136 39.3523 17.3181 
245 2 25.1874 37.7784 15.7442 
246 2 26.7613 39.3523 17.3181 
247 2 28.3352 37.7784 15.7442 
248 2 29.909 39.3523 17.3181 
249 2 31.4829 37.7784 15.7442 
250 2 33.0568 39.3523 17.3181 
251 2 34.6307 37.7784 15.7442 
252 2 36.2045 39.3523 17.3181 
253 2 37.7784 37.7784 15.7442 
254 2 39.3523 39.3523 17.3181 
255 2 40.9261 37.7784 15.7442 
256 2 42.5 39.3523 17.3181 
257 2 44.0739 37.7784 15.7442 
258 2 45.6477 39.3523 17.3181 
259 2 47.2216 37.7784 15.7442 
260 2 48.7955 39.3523 17.3181 
261 2 50.3693 37.7784 15.7442 
262 2 51.9432 39.3523 17.3181 
263 2 53.5171 37.7784 15.7442 
264 2 55.091 39.3523 17.3181 
265 2 56.6648 37.7784 15.7442 
266 2 58.2387 39.3523 17.3181 
267 2 59.8126 37.7784 15.7442 
268 2 61.3864 39.3523 17.3181 
269 2 62.9603 37.7784 15.7442 
270 2 64.5342 39.3523 17.3181 
271 2 66.108 37.7784 15.7442 
272 2 67.6819 39.3523 17.3181 
273 2 15.7442 40.9261 15.7442 
274 2 17.3181 42.5 17.3181 
275 2 18.892 40.9261 15.7442 
276 2 20.4658 42.5 17.3181 
277 2 22.0397 40.9261 15.7442 
278 2 23.6136 42.5 17.3181 
279 2 25.1874 40.9261 15.7442 
280 2 26.7613 42.5 17.3181 
281 2 28.3352 40.9261 15.7442 
282 2 29.909 42.5 17.3181 
283 2 31.4829 40.9261 15.7442 
284 2 33.0568 42.5 17.3181 
285 2 34.6307 40.9261 15.7442 
286 2 36.2045 42.5 17.3181 
287 2 37.7784 40.9261 15.7442 
288 2 39.3523 42.5 17.3181 
289 2 40.9261 40.9261 15.7442 
290 2 42.5 42.5 17.3181 
291 2 44.0739 40.9261 15.7442 
292 2 45.6477 42.5 17.3181 
293 2 47.2216 40.9261 15.7442 
294 2 48.7955 42.5 17.3181 
295 2 50.3693 40.9261 15.7442 
296 2 51.9432 42.5 17.3181 
297 2 53.5171 40.9261 15.7442 
298 2 55.091 42.5 17.3181 
299 2 56.6648 40.9261 15.7442 
300 2 58.2387 42.5 17.3181 
301 2 59.8126 40.9261 15.7442 
302 2 61.3864 42.5 17.3181 
303 2 62.9603 40.9261 15.7442 
304 2 64.5342 42.5 17.3181 
305 2 66.108 40.9261 15.7442 
306 2 67.6819 42.5 17.3181 
307 2 15.7442 44.0739 15.7442 
308 2 17.3181 45.6477 17.3181 
309 2 18.892 44.0739 15.7442 
310 2 20.4658 45.6477 17.3181 
311 2 22.0397 44.0739 15.7442 
312 2 23.6136 45.6477 17.3181 
313 2 25.1874 44.0739 15.7442 
314 2 26.7613 45.6477 17.3181 
315 2 28.3352 44.0739 15.7442 
316 2 29.909 45.6477 17.3181 
317 2 31.4829 44.0739 15.7442 
318 2 33.0568 45.6477 17.3181 
319 2 34.6307 44.0739 15.7442 
320 2 36.2045 45.6477 17.3181 
321 2 37.7784 44.0739 15.7442 
322 2 39.3523 45.6477 17.3181 
323 2 40.9261 44.0739 15.7442 
324 2 42.5 45.6477 17.3181 
325 2 44.0739 44.0739 15.7442 
326 2 45.6477 45.6477 17.3181 
327 2 47.2216 44.0739 15.7442 
328 2 48.7955 45.6477 17.3181 
329 2 50.3693 44.0739 15.7442 
330 2 51.9432 45.6477 17.3181 
331 2 53.5171 44.0739 15.7442 
332 2 55.091 45.6477 17.3181 
333 2 56.6648 44.0739 15.7442 
334 2 58.2387 45.6477 17.3181 
335 2 59.8126 44.0739 15.7442 
336 2 61.3864 45.6477 17.3181 
337 2 62.9603 44.0739 15.7442 
338 2 64.5342 45.6477 17.3181 
339 2 66.108 44.0739 15.7442 
340 2 67.6819 45.6477 17.3181 
341 2 15.7442 47.2216 15.7442 
342 2 17.3181 48.7955 17.3181 
343 2 18.892 47.2216 15.7442 
344 2 20.4658 48.7955 17.3181 
345 2 22.0397 47.2216 15.7442 
346 2 23.6136 48.7955 17.3181 
347 2 25.1874 47.2216 15.7442 
348 2 26.7613 48.7955 17.3181 
349 2 28.3352 47.2216 15.7442 
350 2 29.909 48.7955 17.3181 
351 2 31.4829 47.2216 15.7442 
352 2 33.0568 48.7955 17.3181 
353 2 34.6307 47.2216 15.7442 
354 2 36.2045 48.7955 17.3181 
355 2 37.7784 47.2216 15.7442 
356 2 39.3523 48.7955 17.3181 
357 2 40.9261 47.2216 15.7442 
358 2 42.5 48.7955 17.3181 
359 2 44.0739 47.2216 15.7442 
360 2 45.6477 48.7955 17.3181 
361 2 47.2216 47.2216 15.7442 
362 2 48.7955 48.7955 17.3181 
363 2 50.3693 47.2216 15.7442 
364 2 51.9432 48.7955 17.3181 
365 2 53.5171 47.2216 15.7442 
366 2 55.091 48.7955 17.3181 
367 2 56.6648 47.2216 15.7442 
368 2 58.2387 48.7955 17.3181 
369 2 59.8126 47.2216 15.7442 
370 2 61.3864 48.7955 17.3181 
371 2 62.9603 47.2216 15.7442 
372 2 64.5342 48.7955 17.3181 
373 2 66.108 47.2216 15.7442 
374 2 67.6819 48.7955 17.3181 
375 2 15.7442 50.3693 15.7442 
376 2 17.3181 51.9432 17.3181 
377 2 18.892 50.3693 15.7442 
378 2 20.4658 51.9432 17.3181 
379 2 22.0397 50.3693 15.7442 
380 2 23.6136 51.9432 17.3181 
381 2 25.1874 50.3693 15.7442 
382 2 26.7613 51.9432 17.3181 
383 2 28.3352 50.3693 15.7442 
384 2 29.909 51.9432 17.3181 
385 2 31.4829 50.3693 15.7442 
386 2 33.0568 51.9432 17.3181 
387 2 34.6307 50.3693 15.7442 
388 2 36.2045 51.9432 17.3181 
389 2 37.7784 50.3693 15.7442 
390 2 39.3523 51.9432 17.3181 
391 2 40.9261 50.3693 15.7442 
392 2 42.5 51.9432 17.3181 
393 2 44.0739 50.3693 15.7442 
394 2 45.6477 51.9432 17.3181 
395 2 47.2216 50.3693 15.7442 
396 2 48.7955 51.9432 17.3181 
397 2 50.3693 50.3693 15.7442 
398 2 51.9432 51.9432 17.3181 
399 2 53.5171 50.3693 15.7442 
400 2 55.091 51.9432 17.3181 
401 2 56.6648 50.3693 15.7442 
402 2 58.2387 51.9432 17.3181 
403 2 59.8126 50.3693 15.7442 
404 2 61.3864 51.9432 17.3181 
405 2 62.9603 50.3693 15.7442 
406 2 64.5342 51.9432 17.3181 
407 2 66.108 50.3693 15.7442 
408 2 67.6819 51.9432 17.3181 
409 2 15.7442 53.5171 15.7442 
410 2 17.3181 55.091 17.3181 
411 2 18.892 53.5171 15.7442 
412 2 20.4658 55.091 17.3181 
413 2 22.0397 53.5171 15.7442 
414 2 23.6136 55.091 17.3181 
415 2 25.1874 53.5171 15.7442 
416 2 26.7613 55.091 17.3181 
417 2 28.3352 53.5171 15.7442 
418 2 29.909 55.091 17.3181 
419 2 31.4829 53.5171 15.7442 
420 2 33.0568 55.091 17.3181 
421 2 34.6307 53.5171 15.7442 
422 2 36.2045 55.091 17.3181 
423 2 37.7784 53.5171 15.7442 
424 2 39.3523 55.091 17.3181 
425 2 40.9261 53.5171 15.7442 
426 2 42.5 55.091 17.3181 
427 2 44.0739 53.5171 15.7442 
428 2 45.6477 55.091 17.3181 
429 2 47.2216 53.5171 15.7442 
430 2 48.7955 55.091 17.3181 
431 2 50.3693 53.5171 15.7442 
432 2 51.9432 55.091 17.3181 
433 2 53.5171 53.5171 15.7442 
434 2 55.091 55.091 17.3181 
435 2 56.6648 53.5171 15.7442 
436 2 58.2387 55.091 17.3181 
437 2 59.8126 53.5171 15.7442 
438 2 61.3864 55.091 17.3181 
439 2 62.9603 53.5171 15.7442 
440 2 64.5342 55.091 17.3181 
441 2 66.108 53.5171 15.7442 
442 2 67.6819 55.091 17.3181 
443 2 15.7442 56.6648 15.7442 
444 2 17.3181 58.2387 17.3181 
445 2 18.892 56.6648 15.7442 
446 2 20.4658 58.2387 17.3181 
447 2 22.0397 56.6648 15.7442 
448 2 23.6136 58.2387 17.3181 
449 2 25.1874 56.6648 15.7442 
450 2 26.7613 58.2387 17.3181 
451 2 28.3352 56.6648 15.7442 
452 2 29.909 58.2387 17.3181 
453 2 31.4829 56.6648 15.7442 
454 2 33.0568 58.2387 17.3181 
455 2 34.6307 56.6648 15.7442 
456 2 36.2045 58.2387 17.3181 
457 2 37.7784 56.6648 15.7442 
458 2 39.3523 58.2387 17.3181 
459 2 40.9261 56.6648 15.7442 
460 2 42.5 58.2387 17.3181 
461 2 44.0739 56.6648 15.7442 
462 2 45.6477 58.2387 17.3181 
463 2 47.2216 56.6648 15.7442 
464 2 48.7955 58.2387 17.3181 
465 2 50.3693 56.6648 15.7442 
466 2 51.9432 58.2387 17.3181 
467 2 53.5171 56.6648 15.7442 
468 2 55.091 58.2387 17.3181 
469 2 56.6648 56.6648 15.7442 
470 2 58.2387 58.2387 17.3181 
471 2 59.8126 56.6648 15.7442 
472 2 61.3864 58.2387 17.3181 
473 2 62.9603 56.6648 15.7442 
474 2 64.5342 58.2387 17.3181 
475 2 66.108 56.6648 15.7442 
476 2 67.6819 58.2387 17.3181 
477 2 15.7442 59.8126 15.7442 
478 2 17.3181 61.3864 17.3181 
479 2 18.892 59.8126 15.7442 
480 2 20.4658 61.3864 17.3181 
481 2 22.0397 59.8126 15.7442 
482 2 23.6136 61.3864 17.3181 
483 2 25.1874 59.8126 15.7442 
484 2 26.7613 61.3864 17.3181 
485 2 28.3352 59.8126 15.7442 
486 2 29.909 61.3864 17.3181 
487 2 31.4829 59.8126 15.7442 
488 2 33.0568 61.3864 17.3181 
489 2 34.6307 59.8126 15.7442 
490 2 36.2045 61.3864 17.3181 
491 2 37.7784 59.8126 15.7442 
492 2 39.3523 61.3864 17.3181 
493 2 40.9261 59.8126 15.7442 
494 2 42.5 61.3864 17.3181 
495 2 44.0739 59.8126 15.7442 
496 2 45.6477 61.3864 17.3181 
497 2 47.2216 59.8126 15.7442 
498 2 48.7955 61.3864 17.3181 
499 2 50.3693 59.8126 15.7442 
500 2 51.9432 61.3864 17.3181 
501 2 53.5171 59.8126 15.7442 
502 2 55.091 61.3864 17.3181 
503 2 56.6648 59.8126 15.7442 
504 2 58.2387 61.3864 17.3181 
505 2 59.8126 59.8126 15.7442 
506 2 61.3864 61.3864 17.3181 
507 2 62.9603 59.8126 15.7442 
508 2 64.5342 61.3864 17.3181 
509 2 66.108 59.8126 15.7442 
510 2 67.6819 61.3864 17.3181 
511 2 15.7442 62.9603 15.7442 
512 2 17.3181 64.5342 17.3181 
513 2 18.892 62.9603 15.7442 
514 2 20.4658 64.5342 17.3181 
515 2 22.0397 62.9603 15.7442 
516 2 23.6136 64.5342 17.3181 
517 2 25.1874 62.9603 15.7442 
518 2 26.7613 64.5342 17.3181 
519 2 28.3352 62.9603 15.7442 
520 2 29.909 64.5342 17.3181 
521 2 31.4829 62.9603 15.7442 
522 2 33.0568 64.5342 17.3181 
523 2 34.6307 62.9603 15.7442 
524 2 36.2045 64.5342 17.3181 
525 2 37.7784 62.9603 15.7442 
526 2 39.3523 64.5342 17.3181 
527 2 40.9261 62.9603 15.7442 
528 2 42.5 64.5342 17.3181 
529 2 44.0739 62.9603 15.7442 
530 2 45.6477 64.5342 17.3181 
531 2 47.2216 62.9603 15.7442 
532 2 48.7955 64.5342 17.3181 
533 2 50.3693 62.9603 15.7442 
534 2 51.9432 64.5342 17.3181 
535 2 53.5171 62.9603 15.7442 
536 2 55.091 64.5342 17.3181 
537 2 56.6648 62.9603 15.7442 
538 2 58.2387 64.5342 17.3181 
539 2 59.8126 62.9603 15.7442 
540 2 61.3864 64.5342 17.3181 
541 2 62.9603 62.9603 15.7442 
542 2 64.5342 64.5342 17.3181 
543 2 66.108 62.9603 15.7442 
544 2 67.6819 64.5342 17.3181 
545 2 15.7442 66.108 15.7442 
546 2 17.3181 67.6819 17.3181 
547 2 18.892 66.108 15.7442 
548 2 20.4658 67.6819 17.3181 
549 2 22.0397 66.108 15.7442 
550 2 23.6136 67.6819 17.3181 
551 2 25.1874 66.108 15.7442 
552 2 26.7613 67.6819 17.3181 
553 2 28.3352 66.108 15.7442 
554 2 29.909 67.6819 17.3181 
555 2 31.4829 66.108 15.7442 
556 2 33.0568 67.6819 17.3181 
557 2 34.6307 66.108 15.7442 
558 2 36.2045 67.6819 17.3181 
559 2 37.7784 66.108 15.7442 
560 2 39.3523 67.6819 17.3181 
561 2 40.9261 66.108 15.7442 
562 2 42.5 67.6819 17.3181 
563 2 44.0739 66.108 15.7442 
564 2 45.6477 67.6819 17.3181 
565 2 47.2216 66.108 15.7442 
566 2 48.7955 67.6819 17.3181 
567 2 50.3693 66.108 15.7442 
568 2 51.9432 67.6819 17.3181 
569 2 53.5171 66.108 15.7442 
570 2 55.091 67.6819 17.3181 
571 2 56.6648 66.108 15.7442 
572 2 58.2387 67.6819 17.3181 
573 2 59.8126 66.108 15.7442 
574 2 61.3864 67.6819 17.3181 
575 2 62.9603 66.108 15.7442 
576 2 64.5342 67.6819 17.3181 
577 2 66.108 66.108 15.7442 
578 2 67.6819 67.6819 17.3181 
579 2 15.7442 15.7442 18.892 
580 2 17.3181 17.3181 20.4658 
581 2 18.892 15.7442 18.892 
582 2 20.4658 17.3181 20.4658 
583 2 22.0397 15.7442 18.892 
584 2 23.6136 17.3181 20.4658 
585 2 25.1874 15.7442 18.892 
586 2 26.7613 17.3181 20.4658 
587 2 28.3352 15.7442 18.892 
588 2 29.909 17.3181 20.4658 
589 2 31.4829 15.7442 18.892 
590 2 33.0568 17.3181 20.4658 
591 2 34.6307 15.7442 18.892 
592 2 36.2045 17.3181 20.4658 
593 2 37.7784 15.7442 18.892 
594 2 39.3523 17.3181 20.4658 
595 2 40.9261 15.7442 18.892 
596 2 42.5 17.3181 20.4658 
597 2 44.0739 15.7442 18.892 
598 2 45.6477 17.3181 20.4658 
599 2 47.2216 15.7442 18.892 
600 2 48.7955 17.3181 20.4658 
601 2 50.3693 15.7442 18.892 
602 2 51.9432 17.3181 20.4658 
603 2 53.5171 15.7442 18.892 
604 2 55.091 17.3181 20.4658 
605 2 56.6648 15.7442 18.892 
606 2 58.2387 17.3181 20.4658 
607 2 59.8126 15.7442 18.892 
608 2 61.3864 17.3181 20.4658 
609 2 62.9603 15.7442 18.892 
610 2 64.5342 17.3181 20.4658 
611 2 66.108 15.7442 18.892 
612 2 67.6819 17.3181 20.4658 
613 2 15.7442 18.892 18.892 
614 2 17.3181 20.4658 20.4658 
615 2 18.892 18.892 18.892 
616 2 20.4658 20.4658 20.4658 
617 2 22.0397 18.892 18.892 
618 2 23.6136 20.4658 20.4658 
619 2 25.1874 18.892 18.892 
620 2 26.7613 20.4658 20.4658 
621 2 28.3352 18.892 18.892 
622 2 29.909 20.4658 20.4658 
623 2 31.4829 18.892 18.892 
624 2 33.0568 20.4658 20.4658 
625 2 34.6307 18.892 18.892 
626 2 36.2045 20.4658 20.4658 
627 2 37.7784 18.892 18.892 
628 2 39.3523 20.4658 20.4658 
629 2 40.9261 18.892 18.892 
630 2 42.5 20.4658 20.4658 
631 2 44.0739 18.892 18.892 
632 2 45.6477 20.4658 20.4658 
633 2 47.2216 18.892 18.892 
634 2 48.7955 20.4658 20.4658 
635 2 50.3693 18.892 18.892 
636 2 51.9432 20.4658 20.4658 
637 2 53.5171 18.892 18.892 
638 2 55.091 20.4658 20.4658 
639 2 56.6648 18.892 18.892 
640 2 58.2387 20.4658 20.4658 
641 2 59.8126 18.892 18.892 
642 2 61.3864 20.4658 20.4658 
643 2 62.9603 18.892 18.892 
644 2 64.5342 20.4658 20.4658 
645 2 66.108 18.892 18.892 
646 2 67.6819 20.4658 20.4658 
647 2 15.7442 22.0397 18.892 
648 2 17.3181 23.6136 20.4658 
649 2 18.892 22.0397 18.892 
650 2 20.4658 23.6136 20.4658 
651 2 22.0397 22.0397 18.892 
652 2 23.6136 23.6136 20.4658 
653 2 25.1874 22.0397 18.892 
654 2 26.7613 23.6136 20.4658 
655 2 28.3352 22.0397 18.892 
656 2 29.909 23.6136 20.4658 
657 2 31.4829 22.0397 18.892 
658 2 33.0568 23.6136 20.4658 
659 2 34.6307 22.0397 18.892 
660 2 36.2045 23.6136 20.4658 
661 2 37.7784 22.0397 18.892 
662 2 39.3523 23.6136 20.4658 
663 2 40.9261 22.0397 18.892 
664 2 42.5 23.6136 20.4658 
665 2 44.0739 22.0397 18.892 
666 2 45.6477 23.6136 20.4658 
667 2 47.2216 22.0397 18.892 
668 2 48.7955 23.6136 20.4658 
669 2 50.3693 22.0397 18.892 
670 2 51.9432 23.6136 20.4658 
671 2 53.5171 22.0397 18.892 
672 2 55.091 23.6136 20.4658 
673 2 56.6648 22.0397 18.892 
674 2 58.2387 23.6136 20.4658 
675 2 59.8126 22.0397 18.892 
676 2 61.3864 23.6136 20.4658 
677 2 62.9603 22.0397 18.892 
678 2 64.5342 23.6136 20.4658 
679 2 66.108 22.0397 18.892 
680 2 67.6819 23.6136 20.4658 
681 2 15.7442 25.1874 18.892 
682 2 17.3181 26.7613 20.4658 
683 2 18.892 25.1874 18.892 
684 2 20.4658 26.7613 20.4658 
685 2 22.0397 25.1874 18.892 
686 2 23.6136 26.7613 20.4658 
687 2 25.1874 25.1874 18.892 
688 2 26.7613 26.7613 20.4658 
689 2 28.3352 25.1874 18.892 
690 2 29.909 26.7613 20.4658 
691 2 31.4829 25.1874 18.892 
692 2 33.0568 26.7613 20.4658 
693 2 34.6307 25.1874 18.892 
694 2 36.2045 26.7613 20.4658 
695 2 37.7784 25.1874 18.892 
696 2 39.3523 26.7613 20.4658 
697 2 40.9261 25.1874 18.892 
698 2 42.5 26.7613 20.4658 
699 2 44.0739 25.1874 18.892 
700 2 45.6477 26.7613 20.4658 
701 2 47.2216 25.1874 18.892 
702 2 48.7955 26.7613 20.4658 
703 2 50.3693 25.1874 18.892 
704 2 51.9432 26.7613 20.4658 
705 2 53.5171 25.1874 18.892 
706 2 55.091 26.7613 20.4658 
707 2 56.6648 25.1874 18.892 
708 2 58.2387 26.7613 20.4658 
709 2 59.8126 25.1874 18.892 
710 2 61.3864 26.7613 20.4658 
711 2 62.9603 25.1874 18.892 
712 2 64.5342 26.7613 20.4658 
713 2 66.108 25.1874 18.892 
714 2 67.6819 26.7613 20.4658 
715 2 15.7442 28.3352 18.892 
716 2 17.3181 29.909 20.4658 
717 2 18.892 28.3352 18.892 
718 2 20.4658 29.909 20.4658 
719 2 22.0397 28.3352 18.892 
720 2 23.6136 29.909 20.4658 
721 2 25.1874 28.3352 18.892 
722 2 26.7613 29.909 20.4658 
723 2 28.3352 28.3352 18.892 
724 2 29.909 29.909 20.4658 
725 2 31.4829 28.3352 18.892 
726 2 33.0568 29.909 20.4658 
727 2 34.6307 28.3352 18.892 
728 2 36.2045 29.909 20.4658 
729 2 37.7784 28.3352 18.892 
730 2 39.3523 29.909 20.4658 
731 2 40.9261 28.3352 18.892 
732 2 42.5 29.909 20.4658 
733 2 44.0739 28.3352 18.892 
734 2 45.6477 29.909 20.4658 
735 2 47.2216 28.3352 18.892 
736 2 48.7955 29.909 20.4658 
737 2 50.3693 28.3352 18.892 
738 2 51.9432 29.909 20.4658 
739 2 53.5171 28.3352 18.892 
740 2 55.091 29.909 20.4658 
741 2 56.6648 28.3352 18.892 
742 2 58.2387 29.909 20.4658 
743 2 59.8126 28.3352 18.892 
744 2 61.3864 29.909 20.4658 
745 2 62.9603 28.3352 18.892 
746 2 64.5342 29.909 20.4658 
747 2 66.108 28.3352 18.892 
748 2 67.6819 29.909 20.4658 
749 2 15.7442 31.4829 18.892 
750 2 17.3181 33.0568 20.4658 
751 2 18.892 31.4829 18.892 
752 2 20.4658 33.0568 20.4658 
753 2 22.0397 31.4829 18.892 
754 2 23.6136 33.0568 20.4658 
755 2 25.1874 31.4829 18.892 
756 2 26.7613 33.0568 20.4658 
757 2 28.3352 31.4829 18.892 
758 2 29.909 33.0568 20.4658 
759 2 31.4829 31.4829 18.892 
760 2 33.0568 33.0568 20.4658 
761 2 34.6307 31.4829 18.892 
762 2 36.2045 33.0568 20.4658 
763 2 37.7784 31.4829 18.892 
764 2 39.3523 33.0568 20.4658 
765 2 40.9261 31.4829 18.892 
766 2 42.5 33.0568 20.4658 
767 2 44.0739 31.4829 18.892 
768 2 45.6477 33.0568 20.4658 
769 2 47.2216 31.4829 18.892 
770 2 48.7955 33.0568 20.4658 
771 2 50.3693 31.4829 18.892 
772 2 51.9432 33.0568 20.4658 
773 2 53.5171 31.4829 18.892 
774 2 55.091 33.0568 20.4658 
775 2 56.6648 31.4829 18.892 
776 2 58.2387 33.0568 20.4658 
777 2 59.8126 31.4829 18.892 
778 2 61.3864 33.0568 20.4658 
779 2 62.9603 31.4829 18.892 
780 2 64.5342 33.0568 20.4658 
781 2 66.108 31.4829 18.892 
782 2 67.6819 33.0568 20.4658 
783 2 15.7442 34.6307 18.892 
784 2 17.3181 36.2045 20.4658 
785 2 18.892 34.6307 18.892 
786 2 20.4658 36.2045 20.4658 
787 2 22.0397 34.6307 18.892 
788 2 23.6136 36.2045 20.4658 
789 2 25.1874 34.6307 18.892 
790 2 26.7613 36.2045 20.4658 
791 2 28.3352 34.6307 18.892 
792 2 29.909 36.2045 20.4658 
793 2 31.4829 34.6307 18.892 
794 2 33.0568 36.2045 20.4658 
795 2 34.6307 34.6307 18.892 
796 2 36.2045 36.2045 20.4658 
797 2 37.7784 34.6307 18.892 
798 2 39.3523 36.2045 20.4658 
799 2 40.9261 34.6307 18.892 
800 2 42.5 36.2045 20.4658 
801 2 44.0739 34.6307 18.892 
802 2 45.6477 36.2045 20.4658 
803 2 47.2216 34.6307 18.892 
804 2 48.7955 36.2045 20.4658 
805 2 50.3693 34.6307 18.892 
806 2 51.9432 36.2045 20.4658 
807 2 53.5171 34.6307 18.892 
808 2 55.091 36.2045 20.4658 
809 2 56.6648 34.6307 18.892 
810 2 58.2387 36.2045 20.4658 
811 2 59.8126 34.6307 18.892 
812 2 61.3864 36.2045 20.4658 
813 2 62.9603 34.6307 18.892 
814 2 64.5342 36.2045 20.4658 
815 2 66.108 34.6307 18.892 
816 2 67.6819 36.2045 20.4658 
817 2 15.7442 37.7784 18.892 
818 2 17.3181 39.3523 20.4658 
819 2 18.892 37.7784 18.892 
820 2 20.4658 39.3523 20.4658 
821 2 22.0397 37.7784 18.892 
822 2 23.6136 39.3523 20.4658 
823 2 25.1874 37.7784 18.892 
824 2 26.7613 39.3523 20.4658 
825 2 28.3352 37.7784 18.892 
826 2 29.909 39.3523 20.4658 
827 2 31.4829 37.7784 18.892 
828 2 33.0568 39.3523 20.4658 
829 2 34.6307 37.7784 18.892 
830 2 36.2045 39.3523 20.4658 
831 2 37.7784 37.7784 18.892 
832 2 39.3523 39.3523 20.4658 
833 2 40.9261 37.7784 18.892 
834 2 42.5 39.3523 20.4658 
835 2 44.0739 37.7784 18.892 
836 2 45.6477 39.3523 20.4658 
837 2 47.2216 37.7784 18.892 
838 2 48.7955 39.3523 20.4658 
839 2 50.3693 37.7784 18.892 
840 2 51.9432 39.3523 20.4658 
841 2 53.5171 37.7784 18.892 
842 2 55.091 39.3523 20.4658 
843 2 56.6648 37.7784 18.892 
844 2 58.2387 39.3523 20.4658 
845 2 59.8126 37.7784 18.892 
846 2 61.3864 39.3523 20.4658 
847 2 62.9603 37.7784 18.892 
848 2 64.5342 39.3523 20.4658 
849 2 66.108 37.7784 18.892 
850 2 67.6819 39.3523 20.4658 
851 2 15.7442 40.9261 18.892 
852 2 17.3181 42.5 20.4658 
853 2 18.892 40.9261 18.892 
854 2 20.4658 42.5 20.4658 
855 2 22.0397 40.9261 18.892 
856 2 23.6136 42.5 20.4658 
857 2 25.1874 40.9261 18.892 
858 2 26.7613 42.5 20.4658 
859 2 28.3352 40.9261 18.892 
860 2 29.909 42.5 20.4658 
861 2 31.4829 40.9261 18.892 
862 2 33.0568 42.5 20.4658 
863 2 34.6307 40.9261 18.892 
864 2 36.2045 42.5 20.4658 
865 2 37.7784 40.9261 18.892 
866 2 39.3523 42.5 20.4658 
867 2 40.9261 40.9261 18.892 
868 2 42.5 42.5 20.4658 
869 2 44.0739 40.9261 18.892 
870 2 45.6477 42.5 20.4658 
871 2 47.2216 40.9261 18.892 
872 2 48.7955 42.5 20.4658 
873 2 50.3693 40.9261 18.892 
874 2 51.9432 42.5 20.4658 
875 2 53.5171 40.9261 18.892 
876 2 55.091 42.5 20.4658 
877 2 56.6648 40.9261 18.892 
878 2 58.2387 42.5 20.4658 
879 2 59.8126 40.9261 18.892 
880 2 61.3864 42.5 20.4658 
881 2 62.9603 40.9261 18.892 
882 2 64.5342 42.5 20.4658 
883 2 66.108 40.9261 18.892 
884 2 67.6819 42.5 20.4658 
885 2 15.7442 44.0739 18.892 
886 2 17.3181 45.6477 20.4658 
887 2 18.892 44.0739 18.892 
888 2 20.4658 45.6477 20.4658 
889 2 22.0397 44.0739 18.892 
890 2 23.6136 45.6477 20.4658 
891 2 25.1874 44.0739 18.892 
892 2 26.7613 45.6477 20.4658 
893 2 28.3352 44.0739 18.892 
894 2 29.909 45.6477 20.4658 
895 2 31.4829 44.0739 18.892 
896 2 33.0568 45.6477 20.4658 
897 2 34.6307 44.0739 18.892 
898 2 36.2045 45.6477 20.4658 
899 2 37.7784 44.0739 18.892 
900 2 39.3523 45.6477 20.4658 
901 2 40.9261 44.0739 18.892 
902 2 42.5 45.6477 20.4658 
903 2 44.0739 44.0739 18.892 
904 2 45.6477 45.6477 20.4658 
905 2 47.2216 44.0739 18.892 
906 2 48.7955 45.6477 20.4658 
907 2 50.3693 44.0739 18.892 
908 2 51.9432 45.6477 20.4658 
909 2 53.5171 44.0739 18.892 
910 2 55.091 45.6477 20.4658 
911 2 56.6648 44.0739 18.892 
912 2 58.2387 45.6477 20.4658 
913 2 59.8126 44.0739 18.892 
914 2 61.3864 45.6477 20.4658 
915 2 62.9603 44.0739 18.892 
916 2 64.5342 45.6477 20.4658 
917 2 66.108 44.0739 18.892 
918 2 67.6819 45.6477 20.4658 
919 2 15.7442 47.2216 18.892 
920 2 17.3181 48.7955 20.4658 
921 2 18.892 47.2216 18.892 
922 2 20.4658 48.7955 20.4658 
923 2 22.0397 47.2216 18.892 
924 2 23.6136 48.7955 20.4658 
925 2 25.1874 47.2216 18.892 
926 2 26.7613 48.7955 20.4658 
927 2 28.3352 47.2216 18.892 
928 2 29.909 48.7955 20.4658 
929 2 31.4829 47.2216 18.892 
930 2 33.0568 48.7955 20.4658 
931 2 34.6307 47.2216 18.892 
932 2 36.2045 48.7955 20.4658 
933 2 37.7784 47.2216 18.892 
934 2 39.3523 48.7955 20.4658 
935 2 40.9261 47.2216 18.892 
936 2 42.5 48.7955 20.4658 
937 2 44.0739 47.2216 18.892 
938 2 45.6477 48.7955 20.4658 
939 2 47.2216 47.2216 18.892 
940 2 48.7955 48.7955 20.4658 
941 2 50.3693 47.2216 18.892 
942 2 51.9432 48.7955 20.4658 
943 2 53.5171 47.2216 18.892 
944 2 55.091 48.7955 20.4658 
945 2 56.6648 47.2216 18.892 
946 2 58.2387 48.7955 20.4658 
947 2 59.8126 47.2216 18.892 
948 2 61.3864 48.7955 20.4658 
949 2 62.9603 47.2216 18.892 
950 2 64.5342 48.7955 20.4658 
951 2 66.108 47.2216 18.892 
952 2 67.6819 48.7955 20.4658 
953 2 15.7442 50.3693 18.892 
954 2 17.3181 51.9432 20.4658 
955 2 18.892 50.3693 18.892 
956 2 20.4658 51.9432 20.4658 
957 2 22.0397 50.3693 18.892 
958 2 23.6136 51.9432 20.4658 
959 2 25.1874 50.3693 18.892 
960 2 26.7613 51.9432 20.4658 
961 2 28.3352 50.3693 18.892 
962 2 29.909 51.9432 20.4658 
963 2 31.4829 50.3693 18.892 
964 2 33.0568 51.9432 20.4658 
965 2 34.6307 50.3693 18.892 
966 2 36.2045 51.9432 20.4658 
967 2 37.7784 50.3693 18.892 
968 2 39.3523 51.9432 20.4658 
969 2 40.9261 50.3693 18.892 
970 2 42.5 51.9432 20.4658 
971 2 44.0739 50.3693 18.892 
972 2 45.6477 51.9432 20.4658 
973 2 47.2216 50.3693 18.892 
974 2 48.7955 51.9432 20.4658 
975 2 50.3693 50.3693 18.892 
976 2 51.9432 51.9432 20.4658 
977 2 53.5171 50.3693 18.892 
978 2 55.091 51.9432 20.4658 
979 2 56.6648 50.3693 18.892 
980 2 58.2387 51.9432 20.4658 
981 2 59.8126 50.3693 18.892 
982 2 61.3864 51.9432 20.4658 
983 2 62.9603 50.3693 18.892 