ITEM: TIMESTEP
57
ITEM: NUMBER OF ATOMS
19652
ITEM: BOX BOUNDS pp pp pp
1.1612011053411585e+01 7.3387988946588123e+01
1.1612011053411585e+01 7.3387988946588123e+01
1.1612011053411585e+01 7.3387988946588123e+01
ITEM: ATOMS id type xu yu zu 
1 1 11.612 11.612 11.612 
2 1 13.429 13.429 11.612 
3 1 13.429 11.612 13.429 
4 1 11.612 13.429 13.429 
5 1 15.2459 11.612 11.612 
6 1 17.0628 13.429 11.612 
7 1 17.0628 11.612 13.429 
8 1 15.2459 13.429 13.429 
9 1 18.8798 11.612 11.612 
10 1 20.6967 13.429 11.612 
11 1 20.6967 11.612 13.429 
12 1 18.8798 13.429 13.429 
13 1 22.5137 11.612 11.612 
14 1 24.3306 13.429 11.612 
15 1 24.3306 11.612 13.429 
16 1 22.5137 13.429 13.429 
17 1 26.1475 11.612 11.612 
18 1 27.9645 13.429 11.612 
19 1 27.9645 11.612 13.429 
20 1 26.1475 13.429 13.429 
21 1 29.7814 11.612 11.612 
22 1 31.5984 13.429 11.612 
23 1 31.5984 11.612 13.429 
24 1 29.7814 13.429 13.429 
25 1 33.4153 11.612 11.612 
26 1 35.2322 13.429 11.612 
27 1 35.2322 11.612 13.429 
28 1 33.4153 13.429 13.429 
29 1 37.0492 11.612 11.612 
30 1 38.8661 13.429 11.612 
31 1 38.8661 11.612 13.429 
32 1 37.0492 13.429 13.429 
33 1 40.6831 11.612 11.612 
34 1 42.5 13.429 11.612 
35 1 42.5 11.612 13.429 
36 1 40.6831 13.429 13.429 
37 1 44.3169 11.612 11.612 
38 1 46.1339 13.429 11.612 
39 1 46.1339 11.612 13.429 
40 1 44.3169 13.429 13.429 
41 1 47.9508 11.612 11.612 
42 1 49.7678 13.429 11.612 
43 1 49.7678 11.612 13.429 
44 1 47.9508 13.429 13.429 
45 1 51.5847 11.612 11.612 
46 1 53.4016 13.429 11.612 
47 1 53.4016 11.612 13.429 
48 1 51.5847 13.429 13.429 
49 1 55.2186 11.612 11.612 
50 1 57.0355 13.429 11.612 
51 1 57.0355 11.612 13.429 
52 1 55.2186 13.429 13.429 
53 1 58.8525 11.612 11.612 
54 1 60.6694 13.429 11.612 
55 1 60.6694 11.612 13.429 
56 1 58.8525 13.429 13.429 
57 1 62.4863 11.612 11.612 
58 1 64.3033 13.429 11.612 
59 1 64.3033 11.612 13.429 
60 1 62.4863 13.429 13.429 
61 1 66.1202 11.612 11.612 
62 1 67.9372 13.429 11.612 
63 1 67.9372 11.612 13.429 
64 1 66.1202 13.429 13.429 
65 1 69.7541 11.612 11.612 
66 1 71.571 13.429 11.612 
67 1 71.571 11.612 13.429 
68 1 69.7541 13.429 13.429 
69 1 11.612 15.2459 11.612 
70 1 13.429 17.0628 11.612 
71 1 13.429 15.2459 13.429 
72 1 11.612 17.0628 13.429 
73 1 15.2459 15.2459 11.612 
74 1 17.0628 17.0628 11.612 
75 1 17.0628 15.2459 13.429 
76 1 15.2459 17.0628 13.429 
77 1 18.8798 15.2459 11.612 
78 1 20.6967 17.0628 11.612 
79 1 20.6967 15.2459 13.429 
80 1 18.8798 17.0628 13.429 
81 1 22.5137 15.2459 11.612 
82 1 24.3306 17.0628 11.612 
83 1 24.3306 15.2459 13.429 
84 1 22.5137 17.0628 13.429 
85 1 26.1475 15.2459 11.612 
86 1 27.9645 17.0628 11.612 
87 1 27.9645 15.2459 13.429 
88 1 26.1475 17.0628 13.429 
89 1 29.7814 15.2459 11.612 
90 1 31.5984 17.0628 11.612 
91 1 31.5984 15.2459 13.429 
92 1 29.7814 17.0628 13.429 
93 1 33.4153 15.2459 11.612 
94 1 35.2322 17.0628 11.612 
95 1 35.2322 15.2459 13.429 
96 1 33.4153 17.0628 13.429 
97 1 37.0492 15.2459 11.612 
98 1 38.8661 17.0628 11.612 
99 1 38.8661 15.2459 13.429 
100 1 37.0492 17.0628 13.429 
101 1 40.6831 15.2459 11.612 
102 1 42.5 17.0628 11.612 
103 1 42.5 15.2459 13.429 
104 1 40.6831 17.0628 13.429 
105 1 44.3169 15.2459 11.612 
106 1 46.1339 17.0628 11.612 
107 1 46.1339 15.2459 13.429 
108 1 44.3169 17.0628 13.429 
109 1 47.9508 15.2459 11.612 
110 1 49.7678 17.0628 11.612 
111 1 49.7678 15.2459 13.429 
112 1 47.9508 17.0628 13.429 
113 1 51.5847 15.2459 11.612 
114 1 53.4016 17.0628 11.612 
115 1 53.4016 15.2459 13.429 
116 1 51.5847 17.0628 13.429 
117 1 55.2186 15.2459 11.612 
118 1 57.0355 17.0628 11.612 
119 1 57.0355 15.2459 13.429 
120 1 55.2186 17.0628 13.429 
121 1 58.8525 15.2459 11.612 
122 1 60.6694 17.0628 11.612 
123 1 60.6694 15.2459 13.429 
124 1 58.8525 17.0628 13.429 
125 1 62.4863 15.2459 11.612 
126 1 64.3033 17.0628 11.612 
127 1 64.3033 15.2459 13.429 
128 1 62.4863 17.0628 13.429 
129 1 66.1202 15.2459 11.612 
130 1 67.9372 17.0628 11.612 
131 1 67.9372 15.2459 13.429 
132 1 66.1202 17.0628 13.429 
133 1 69.7541 15.2459 11.612 
134 1 71.571 17.0628 11.612 
135 1 71.571 15.2459 13.429 
136 1 69.7541 17.0628 13.429 
137 1 11.612 18.8798 11.612 
138 1 13.429 20.6967 11.612 
139 1 13.429 18.8798 13.429 
140 1 11.612 20.6967 13.429 
141 1 15.2459 18.8798 11.612 
142 1 17.0628 20.6967 11.612 
143 1 17.0628 18.8798 13.429 
144 1 15.2459 20.6967 13.429 
145 1 18.8798 18.8798 11.612 
146 1 20.6967 20.6967 11.612 
147 1 20.6967 18.8798 13.429 
148 1 18.8798 20.6967 13.429 
149 1 22.5137 18.8798 11.612 
150 1 24.3306 20.6967 11.612 
151 1 24.3306 18.8798 13.429 
152 1 22.5137 20.6967 13.429 
153 1 26.1475 18.8798 11.612 
154 1 27.9645 20.6967 11.612 
155 1 27.9645 18.8798 13.429 
156 1 26.1475 20.6967 13.429 
157 1 29.7814 18.8798 11.612 
158 1 31.5984 20.6967 11.612 
159 1 31.5984 18.8798 13.429 
160 1 29.7814 20.6967 13.429 
161 1 33.4153 18.8798 11.612 
162 1 35.2322 20.6967 11.612 
163 1 35.2322 18.8798 13.429 
164 1 33.4153 20.6967 13.429 
165 1 37.0492 18.8798 11.612 
166 1 38.8661 20.6967 11.612 
167 1 38.8661 18.8798 13.429 
168 1 37.0492 20.6967 13.429 
169 1 40.6831 18.8798 11.612 
170 1 42.5 20.6967 11.612 
171 1 42.5 18.8798 13.429 
172 1 40.6831 20.6967 13.429 
173 1 44.3169 18.8798 11.612 
174 1 46.1339 20.6967 11.612 
175 1 46.1339 18.8798 13.429 
176 1 44.3169 20.6967 13.429 
177 1 47.9508 18.8798 11.612 
178 1 49.7678 20.6967 11.612 
179 1 49.7678 18.8798 13.429 
180 1 47.9508 20.6967 13.429 
181 1 51.5847 18.8798 11.612 
182 1 53.4016 20.6967 11.612 
183 1 53.4016 18.8798 13.429 
184 1 51.5847 20.6967 13.429 
185 1 55.2186 18.8798 11.612 
186 1 57.0355 20.6967 11.612 
187 1 57.0355 18.8798 13.429 
188 1 55.2186 20.6967 13.429 
189 1 58.8525 18.8798 11.612 
190 1 60.6694 20.6967 11.612 
191 1 60.6694 18.8798 13.429 
192 1 58.8525 20.6967 13.429 
193 1 62.4863 18.8798 11.612 
194 1 64.3033 20.6967 11.612 
195 1 64.3033 18.8798 13.429 
196 1 62.4863 20.6967 13.429 
197 1 66.1202 18.8798 11.612 
198 1 67.9372 20.6967 11.612 
199 1 67.9372 18.8798 13.429 
200 1 66.1202 20.6967 13.429 
201 1 69.7541 18.8798 11.612 
202 1 71.571 20.6967 11.612 
203 1 71.571 18.8798 13.429 
204 1 69.7541 20.6967 13.429 
205 1 11.612 22.5137 11.612 
206 1 13.429 24.3306 11.612 
207 1 13.429 22.5137 13.429 
208 1 11.612 24.3306 13.429 
209 1 15.2459 22.5137 11.612 
210 1 17.0628 24.3306 11.612 
211 1 17.0628 22.5137 13.429 
212 1 15.2459 24.3306 13.429 
213 1 18.8798 22.5137 11.612 
214 1 20.6967 24.3306 11.612 
215 1 20.6967 22.5137 13.429 
216 1 18.8798 24.3306 13.429 
217 1 22.5137 22.5137 11.612 
218 1 24.3306 24.3306 11.612 
219 1 24.3306 22.5137 13.429 
220 1 22.5137 24.3306 13.429 
221 1 26.1475 22.5137 11.612 
222 1 27.9645 24.3306 11.612 
223 1 27.9645 22.5137 13.429 
224 1 26.1475 24.3306 13.429 
225 1 29.7814 22.5137 11.612 
226 1 31.5984 24.3306 11.612 
227 1 31.5984 22.5137 13.429 
228 1 29.7814 24.3306 13.429 
229 1 33.4153 22.5137 11.612 
230 1 35.2322 24.3306 11.612 
231 1 35.2322 22.5137 13.429 
232 1 33.4153 24.3306 13.429 
233 1 37.0492 22.5137 11.612 
234 1 38.8661 24.3306 11.612 
235 1 38.8661 22.5137 13.429 
236 1 37.0492 24.3306 13.429 
237 1 40.6831 22.5137 11.612 
238 1 42.5 24.3306 11.612 
239 1 42.5 22.5137 13.429 
240 1 40.6831 24.3306 13.429 
241 1 44.3169 22.5137 11.612 
242 1 46.1339 24.3306 11.612 
243 1 46.1339 22.5137 13.429 
244 1 44.3169 24.3306 13.429 
245 1 47.9508 22.5137 11.612 
246 1 49.7678 24.3306 11.612 
247 1 49.7678 22.5137 13.429 
248 1 47.9508 24.3306 13.429 
249 1 51.5847 22.5137 11.612 
250 1 53.4016 24.3306 11.612 
251 1 53.4016 22.5137 13.429 
252 1 51.5847 24.3306 13.429 
253 1 55.2186 22.5137 11.612 
254 1 57.0355 24.3306 11.612 
255 1 57.0355 22.5137 13.429 
256 1 55.2186 24.3306 13.429 
257 1 58.8525 22.5137 11.612 
258 1 60.6694 24.3306 11.612 
259 1 60.6694 22.5137 13.429 
260 1 58.8525 24.3306 13.429 
261 1 62.4863 22.5137 11.612 
262 1 64.3033 24.3306 11.612 
263 1 64.3033 22.5137 13.429 
264 1 62.4863 24.3306 13.429 
265 1 66.1202 22.5137 11.612 
266 1 67.9372 24.3306 11.612 
267 1 67.9372 22.5137 13.429 
268 1 66.1202 24.3306 13.429 
269 1 69.7541 22.5137 11.612 
270 1 71.571 24.3306 11.612 
271 1 71.571 22.5137 13.429 
272 1 69.7541 24.3306 13.429 
273 1 11.612 26.1475 11.612 
274 1 13.429 27.9645 11.612 
275 1 13.429 26.1475 13.429 
276 1 11.612 27.9645 13.429 
277 1 15.2459 26.1475 11.612 
278 1 17.0628 27.9645 11.612 
279 1 17.0628 26.1475 13.429 
280 1 15.2459 27.9645 13.429 
281 1 18.8798 26.1475 11.612 
282 1 20.6967 27.9645 11.612 
283 1 20.6967 26.1475 13.429 
284 1 18.8798 27.9645 13.429 
285 1 22.5137 26.1475 11.612 
286 1 24.3306 27.9645 11.612 
287 1 24.3306 26.1475 13.429 
288 1 22.5137 27.9645 13.429 
289 1 26.1475 26.1475 11.612 
290 1 27.9645 27.9645 11.612 
291 1 27.9645 26.1475 13.429 
292 1 26.1475 27.9645 13.429 
293 1 29.7814 26.1475 11.612 
294 1 31.5984 27.9645 11.612 
295 1 31.5984 26.1475 13.429 
296 1 29.7814 27.9645 13.429 
297 1 33.4153 26.1475 11.612 
298 1 35.2322 27.9645 11.612 
299 1 35.2322 26.1475 13.429 
300 1 33.4153 27.9645 13.429 
301 1 37.0492 26.1475 11.612 
302 1 38.8661 27.9645 11.612 
303 1 38.8661 26.1475 13.429 
304 1 37.0492 27.9645 13.429 
305 1 40.6831 26.1475 11.612 
306 1 42.5 27.9645 11.612 
307 1 42.5 26.1475 13.429 
308 1 40.6831 27.9645 13.429 
309 1 44.3169 26.1475 11.612 
310 1 46.1339 27.9645 11.612 
311 1 46.1339 26.1475 13.429 
312 1 44.3169 27.9645 13.429 
313 1 47.9508 26.1475 11.612 
314 1 49.7678 27.9645 11.612 
315 1 49.7678 26.1475 13.429 
316 1 47.9508 27.9645 13.429 
317 1 51.5847 26.1475 11.612 
318 1 53.4016 27.9645 11.612 
319 1 53.4016 26.1475 13.429 
320 1 51.5847 27.9645 13.429 
321 1 55.2186 26.1475 11.612 
322 1 57.0355 27.9645 11.612 
323 1 57.0355 26.1475 13.429 
324 1 55.2186 27.9645 13.429 
325 1 58.8525 26.1475 11.612 
326 1 60.6694 27.9645 11.612 
327 1 60.6694 26.1475 13.429 
328 1 58.8525 27.9645 13.429 
329 1 62.4863 26.1475 11.612 
330 1 64.3033 27.9645 11.612 
331 1 64.3033 26.1475 13.429 
332 1 62.4863 27.9645 13.429 
333 1 66.1202 26.1475 11.612 
334 1 67.9372 27.9645 11.612 
335 1 67.9372 26.1475 13.429 
336 1 66.1202 27.9645 13.429 
337 1 69.7541 26.1475 11.612 
338 1 71.571 27.9645 11.612 
339 1 71.571 26.1475 13.429 
340 1 69.7541 27.9645 13.429 
341 1 11.612 29.7814 11.612 
342 1 13.429 31.5984 11.612 
343 1 13.429 29.7814 13.429 
344 1 11.612 31.5984 13.429 
345 1 15.2459 29.7814 11.612 
346 1 17.0628 31.5984 11.612 
347 1 17.0628 29.7814 13.429 
348 1 15.2459 31.5984 13.429 
349 1 18.8798 29.7814 11.612 
350 1 20.6967 31.5984 11.612 
351 1 20.6967 29.7814 13.429 
352 1 18.8798 31.5984 13.429 
353 1 22.5137 29.7814 11.612 
354 1 24.3306 31.5984 11.612 
355 1 24.3306 29.7814 13.429 
356 1 22.5137 31.5984 13.429 
357 1 26.1475 29.7814 11.612 
358 1 27.9645 31.5984 11.612 
359 1 27.9645 29.7814 13.429 
360 1 26.1475 31.5984 13.429 
361 1 29.7814 29.7814 11.612 
362 1 31.5984 31.5984 11.612 
363 1 31.5984 29.7814 13.429 
364 1 29.7814 31.5984 13.429 
365 1 33.4153 29.7814 11.612 
366 1 35.2322 31.5984 11.612 
367 1 35.2322 29.7814 13.429 
368 1 33.4153 31.5984 13.429 
369 1 37.0492 29.7814 11.612 
370 1 38.8661 31.5984 11.612 
371 1 38.8661 29.7814 13.429 
372 1 37.0492 31.5984 13.429 
373 1 40.6831 29.7814 11.612 
374 1 42.5 31.5984 11.612 
375 1 42.5 29.7814 13.429 
376 1 40.6831 31.5984 13.429 
377 1 44.3169 29.7814 11.612 
378 1 46.1339 31.5984 11.612 
379 1 46.1339 29.7814 13.429 
380 1 44.3169 31.5984 13.429 
381 1 47.9508 29.7814 11.612 
382 1 49.7678 31.5984 11.612 
383 1 49.7678 29.7814 13.429 
384 1 47.9508 31.5984 13.429 
385 1 51.5847 29.7814 11.612 
386 1 53.4016 31.5984 11.612 
387 1 53.4016 29.7814 13.429 
388 1 51.5847 31.5984 13.429 
389 1 55.2186 29.7814 11.612 
390 1 57.0355 31.5984 11.612 
391 1 57.0355 29.7814 13.429 
392 1 55.2186 31.5984 13.429 
393 1 58.8525 29.7814 11.612 
394 1 60.6694 31.5984 11.612 
395 1 60.6694 29.7814 13.429 
396 1 58.8525 31.5984 13.429 
397 1 62.4863 29.7814 11.612 
398 1 64.3033 31.5984 11.612 
399 1 64.3033 29.7814 13.429 
400 1 62.4863 31.5984 13.429 
401 1 66.1202 29.7814 11.612 
402 1 67.9372 31.5984 11.612 
403 1 67.9372 29.7814 13.429 
404 1 66.1202 31.5984 13.429 
405 1 69.7541 29.7814 11.612 
406 1 71.571 31.5984 11.612 
407 1 71.571 29.7814 13.429 
408 1 69.7541 31.5984 13.429 
409 1 11.612 33.4153 11.612 
410 1 13.429 35.2322 11.612 
411 1 13.429 33.4153 13.429 
412 1 11.612 35.2322 13.429 
413 1 15.2459 33.4153 11.612 
414 1 17.0628 35.2322 11.612 
415 1 17.0628 33.4153 13.429 
416 1 15.2459 35.2322 13.429 
417 1 18.8798 33.4153 11.612 
418 1 20.6967 35.2322 11.612 
419 1 20.6967 33.4153 13.429 
420 1 18.8798 35.2322 13.429 
421 1 22.5137 33.4153 11.612 
422 1 24.3306 35.2322 11.612 
423 1 24.3306 33.4153 13.429 
424 1 22.5137 35.2322 13.429 
425 1 26.1475 33.4153 11.612 
426 1 27.9645 35.2322 11.612 
427 1 27.9645 33.4153 13.429 
428 1 26.1475 35.2322 13.429 
429 1 29.7814 33.4153 11.612 
430 1 31.5984 35.2322 11.612 
431 1 31.5984 33.4153 13.429 
432 1 29.7814 35.2322 13.429 
433 1 33.4153 33.4153 11.612 
434 1 35.2322 35.2322 11.612 
435 1 35.2322 33.4153 13.429 
436 1 33.4153 35.2322 13.429 
437 1 37.0492 33.4153 11.612 
438 1 38.8661 35.2322 11.612 
439 1 38.8661 33.4153 13.429 
440 1 37.0492 35.2322 13.429 
441 1 40.6831 33.4153 11.612 
442 1 42.5 35.2322 11.612 
443 1 42.5 33.4153 13.429 
444 1 40.6831 35.2322 13.429 
445 1 44.3169 33.4153 11.612 
446 1 46.1339 35.2322 11.612 
447 1 46.1339 33.4153 13.429 
448 1 44.3169 35.2322 13.429 
449 1 47.9508 33.4153 11.612 
450 1 49.7678 35.2322 11.612 
451 1 49.7678 33.4153 13.429 
452 1 47.9508 35.2322 13.429 
453 1 51.5847 33.4153 11.612 
454 1 53.4016 35.2322 11.612 
455 1 53.4016 33.4153 13.429 
456 1 51.5847 35.2322 13.429 
457 1 55.2186 33.4153 11.612 
458 1 57.0355 35.2322 11.612 
459 1 57.0355 33.4153 13.429 
460 1 55.2186 35.2322 13.429 
461 1 58.8525 33.4153 11.612 
462 1 60.6694 35.2322 11.612 
463 1 60.6694 33.4153 13.429 
464 1 58.8525 35.2322 13.429 
465 1 62.4863 33.4153 11.612 
466 1 64.3033 35.2322 11.612 
467 1 64.3033 33.4153 13.429 
468 1 62.4863 35.2322 13.429 
469 1 66.1202 33.4153 11.612 
470 1 67.9372 35.2322 11.612 
471 1 67.9372 33.4153 13.429 
472 1 66.1202 35.2322 13.429 
473 1 69.7541 33.4153 11.612 
474 1 71.571 35.2322 11.612 
475 1 71.571 33.4153 13.429 
476 1 69.7541 35.2322 13.429 
477 1 11.612 37.0492 11.612 
478 1 13.429 38.8661 11.612 
479 1 13.429 37.0492 13.429 
480 1 11.612 38.8661 13.429 
481 1 15.2459 37.0492 11.612 
482 1 17.0628 38.8661 11.612 
483 1 17.0628 37.0492 13.429 
484 1 15.2459 38.8661 13.429 
485 1 18.8798 37.0492 11.612 
486 1 20.6967 38.8661 11.612 
487 1 20.6967 37.0492 13.429 
488 1 18.8798 38.8661 13.429 
489 1 22.5137 37.0492 11.612 
490 1 24.3306 38.8661 11.612 
491 1 24.3306 37.0492 13.429 
492 1 22.5137 38.8661 13.429 
493 1 26.1475 37.0492 11.612 
494 1 27.9645 38.8661 11.612 
495 1 27.9645 37.0492 13.429 
496 1 26.1475 38.8661 13.429 
497 1 29.7814 37.0492 11.612 
498 1 31.5984 38.8661 11.612 
499 1 31.5984 37.0492 13.429 
500 1 29.7814 38.8661 13.429 
501 1 33.4153 37.0492 11.612 
502 1 35.2322 38.8661 11.612 
503 1 35.2322 37.0492 13.429 
504 1 33.4153 38.8661 13.429 
505 1 37.0492 37.0492 11.612 
506 1 38.8661 38.8661 11.612 
507 1 38.8661 37.0492 13.429 
508 1 37.0492 38.8661 13.429 
509 1 40.6831 37.0492 11.612 
510 1 42.5 38.8661 11.612 
511 1 42.5 37.0492 13.429 
512 1 40.6831 38.8661 13.429 
513 1 44.3169 37.0492 11.612 
514 1 46.1339 38.8661 11.612 
515 1 46.1339 37.0492 13.429 
516 1 44.3169 38.8661 13.429 
517 1 47.9508 37.0492 11.612 
518 1 49.7678 38.8661 11.612 
519 1 49.7678 37.0492 13.429 
520 1 47.9508 38.8661 13.429 
521 1 51.5847 37.0492 11.612 
522 1 53.4016 38.8661 11.612 
523 1 53.4016 37.0492 13.429 
524 1 51.5847 38.8661 13.429 
525 1 55.2186 37.0492 11.612 
526 1 57.0355 38.8661 11.612 
527 1 57.0355 37.0492 13.429 
528 1 55.2186 38.8661 13.429 
529 1 58.8525 37.0492 11.612 
530 1 60.6694 38.8661 11.612 
531 1 60.6694 37.0492 13.429 
532 1 58.8525 38.8661 13.429 
533 1 62.4863 37.0492 11.612 
534 1 64.3033 38.8661 11.612 
535 1 64.3033 37.0492 13.429 
536 1 62.4863 38.8661 13.429 
537 1 66.1202 37.0492 11.612 
538 1 67.9372 38.8661 11.612 
539 1 67.9372 37.0492 13.429 
540 1 66.1202 38.8661 13.429 
541 1 69.7541 37.0492 11.612 
542 1 71.571 38.8661 11.612 
543 1 71.571 37.0492 13.429 
544 1 69.7541 38.8661 13.429 
545 1 11.612 40.6831 11.612 
546 1 13.429 42.5 11.612 
547 1 13.429 40.6831 13.429 
548 1 11.612 42.5 13.429 
549 1 15.2459 40.6831 11.612 
550 1 17.0628 42.5 11.612 
551 1 17.0628 40.6831 13.429 
552 1 15.2459 42.5 13.429 
553 1 18.8798 40.6831 11.612 
554 1 20.6967 42.5 11.612 
555 1 20.6967 40.6831 13.429 
556 1 18.8798 42.5 13.429 
557 1 22.5137 40.6831 11.612 
558 1 24.3306 42.5 11.612 
559 1 24.3306 40.6831 13.429 
560 1 22.5137 42.5 13.429 
561 1 26.1475 40.6831 11.612 
562 1 27.9645 42.5 11.612 
563 1 27.9645 40.6831 13.429 
564 1 26.1475 42.5 13.429 
565 1 29.7814 40.6831 11.612 
566 1 31.5984 42.5 11.612 
567 1 31.5984 40.6831 13.429 
568 1 29.7814 42.5 13.429 
569 1 33.4153 40.6831 11.612 
570 1 35.2322 42.5 11.612 
571 1 35.2322 40.6831 13.429 
572 1 33.4153 42.5 13.429 
573 1 37.0492 40.6831 11.612 
574 1 38.8661 42.5 11.612 
575 1 38.8661 40.6831 13.429 
576 1 37.0492 42.5 13.429 
577 1 40.6831 40.6831 11.612 
578 1 42.5 42.5 11.612 
579 1 42.5 40.6831 13.429 
580 1 40.6831 42.5 13.429 
581 1 44.3169 40.6831 11.612 
582 1 46.1339 42.5 11.612 
583 1 46.1339 40.6831 13.429 
584 1 44.3169 42.5 13.429 
585 1 47.9508 40.6831 11.612 
586 1 49.7678 42.5 11.612 
587 1 49.7678 40.6831 13.429 
588 1 47.9508 42.5 13.429 
589 1 51.5847 40.6831 11.612 
590 1 53.4016 42.5 11.612 
591 1 53.4016 40.6831 13.429 
592 1 51.5847 42.5 13.429 
593 1 55.2186 40.6831 11.612 
594 1 57.0355 42.5 11.612 
595 1 57.0355 40.6831 13.429 
596 1 55.2186 42.5 13.429 
597 1 58.8525 40.6831 11.612 
598 1 60.6694 42.5 11.612 
599 1 60.6694 40.6831 13.429 
600 1 58.8525 42.5 13.429 
601 1 62.4863 40.6831 11.612 
602 1 64.3033 42.5 11.612 
603 1 64.3033 40.6831 13.429 
604 1 62.4863 42.5 13.429 
605 1 66.1202 40.6831 11.612 
606 1 67.9372 42.5 11.612 
607 1 67.9372 40.6831 13.429 
608 1 66.1202 42.5 13.429 
609 1 69.7541 40.6831 11.612 
610 1 71.571 42.5 11.612 
611 1 71.571 40.6831 13.429 
612 1 69.7541 42.5 13.429 
613 1 11.612 44.3169 11.612 
614 1 13.429 46.1339 11.612 
615 1 13.429 44.3169 13.429 
616 1 11.612 46.1339 13.429 
617 1 15.2459 44.3169 11.612 
618 1 17.0628 46.1339 11.612 
619 1 17.0628 44.3169 13.429 
620 1 15.2459 46.1339 13.429 
621 1 18.8798 44.3169 11.612 
622 1 20.6967 46.1339 11.612 
623 1 20.6967 44.3169 13.429 
624 1 18.8798 46.1339 13.429 
625 1 22.5137 44.3169 11.612 
626 1 24.3306 46.1339 11.612 
627 1 24.3306 44.3169 13.429 
628 1 22.5137 46.1339 13.429 
629 1 26.1475 44.3169 11.612 
630 1 27.9645 46.1339 11.612 
631 1 27.9645 44.3169 13.429 
632 1 26.1475 46.1339 13.429 
633 1 29.7814 44.3169 11.612 
634 1 31.5984 46.1339 11.612 
635 1 31.5984 44.3169 13.429 
636 1 29.7814 46.1339 13.429 
637 1 33.4153 44.3169 11.612 
638 1 35.2322 46.1339 11.612 
639 1 35.2322 44.3169 13.429 
640 1 33.4153 46.1339 13.429 
641 1 37.0492 44.3169 11.612 
642 1 38.8661 46.1339 11.612 
643 1 38.8661 44.3169 13.429 
644 1 37.0492 46.1339 13.429 
645 1 40.6831 44.3169 11.612 
646 1 42.5 46.1339 11.612 
647 1 42.5 44.3169 13.429 
648 1 40.6831 46.1339 13.429 
649 1 44.3169 44.3169 11.612 
650 1 46.1339 46.1339 11.612 
651 1 46.1339 44.3169 13.429 
652 1 44.3169 46.1339 13.429 
653 1 47.9508 44.3169 11.612 
654 1 49.7678 46.1339 11.612 
655 1 49.7678 44.3169 13.429 
656 1 47.9508 46.1339 13.429 
657 1 51.5847 44.3169 11.612 
658 1 53.4016 46.1339 11.612 
659 1 53.4016 44.3169 13.429 
660 1 51.5847 46.1339 13.429 
661 1 55.2186 44.3169 11.612 
662 1 57.0355 46.1339 11.612 
663 1 57.0355 44.3169 13.429 
664 1 55.2186 46.1339 13.429 
665 1 58.8525 44.3169 11.612 
666 1 60.6694 46.1339 11.612 
667 1 60.6694 44.3169 13.429 
668 1 58.8525 46.1339 13.429 
669 1 62.4863 44.3169 11.612 
670 1 64.3033 46.1339 11.612 
671 1 64.3033 44.3169 13.429 
672 1 62.4863 46.1339 13.429 
673 1 66.1202 44.3169 11.612 
674 1 67.9372 46.1339 11.612 
675 1 67.9372 44.3169 13.429 
676 1 66.1202 46.1339 13.429 
677 1 69.7541 44.3169 11.612 
678 1 71.571 46.1339 11.612 
679 1 71.571 44.3169 13.429 
680 1 69.7541 46.1339 13.429 
681 1 11.612 47.9508 11.612 
682 1 13.429 49.7678 11.612 
683 1 13.429 47.9508 13.429 
684 1 11.612 49.7678 13.429 
685 1 15.2459 47.9508 11.612 
686 1 17.0628 49.7678 11.612 
687 1 17.0628 47.9508 13.429 
688 1 15.2459 49.7678 13.429 
689 1 18.8798 47.9508 11.612 
690 1 20.6967 49.7678 11.612 
691 1 20.6967 47.9508 13.429 
692 1 18.8798 49.7678 13.429 
693 1 22.5137 47.9508 11.612 
694 1 24.3306 49.7678 11.612 
695 1 24.3306 47.9508 13.429 
696 1 22.5137 49.7678 13.429 
697 1 26.1475 47.9508 11.612 
698 1 27.9645 49.7678 11.612 
699 1 27.9645 47.9508 13.429 
700 1 26.1475 49.7678 13.429 
701 1 29.7814 47.9508 11.612 
702 1 31.5984 49.7678 11.612 
703 1 31.5984 47.9508 13.429 
704 1 29.7814 49.7678 13.429 
705 1 33.4153 47.9508 11.612 
706 1 35.2322 49.7678 11.612 
707 1 35.2322 47.9508 13.429 
708 1 33.4153 49.7678 13.429 
709 1 37.0492 47.9508 11.612 
710 1 38.8661 49.7678 11.612 
711 1 38.8661 47.9508 13.429 
712 1 37.0492 49.7678 13.429 
713 1 40.6831 47.9508 11.612 
714 1 42.5 49.7678 11.612 
715 1 42.5 47.9508 13.429 
716 1 40.6831 49.7678 13.429 
717 1 44.3169 47.9508 11.612 
718 1 46.1339 49.7678 11.612 
719 1 46.1339 47.9508 13.429 
720 1 44.3169 49.7678 13.429 
721 1 47.9508 47.9508 11.612 
722 1 49.7678 49.7678 11.612 
723 1 49.7678 47.9508 13.429 
724 1 47.9508 49.7678 13.429 
725 1 51.5847 47.9508 11.612 
726 1 53.4016 49.7678 11.612 
727 1 53.4016 47.9508 13.429 
728 1 51.5847 49.7678 13.429 
729 1 55.2186 47.9508 11.612 
730 1 57.0355 49.7678 11.612 
731 1 57.0355 47.9508 13.429 
732 1 55.2186 49.7678 13.429 
733 1 58.8525 47.9508 11.612 
734 1 60.6694 49.7678 11.612 
735 1 60.6694 47.9508 13.429 
736 1 58.8525 49.7678 13.429 
737 1 62.4863 47.9508 11.612 
738 1 64.3033 49.7678 11.612 
739 1 64.3033 47.9508 13.429 
740 1 62.4863 49.7678 13.429 
741 1 66.1202 47.9508 11.612 
742 1 67.9372 49.7678 11.612 
743 1 67.9372 47.9508 13.429 
744 1 66.1202 49.7678 13.429 
745 1 69.7541 47.9508 11.612 
746 1 71.571 49.7678 11.612 
747 1 71.571 47.9508 13.429 
748 1 69.7541 49.7678 13.429 
749 1 11.612 51.5847 11.612 
750 1 13.429 53.4016 11.612 
751 1 13.429 51.5847 13.429 
752 1 11.612 53.4016 13.429 
753 1 15.2459 51.5847 11.612 
754 1 17.0628 53.4016 11.612 
755 1 17.0628 51.5847 13.429 
756 1 15.2459 53.4016 13.429 
757 1 18.8798 51.5847 11.612 
758 1 20.6967 53.4016 11.612 
759 1 20.6967 51.5847 13.429 
760 1 18.8798 53.4016 13.429 
761 1 22.5137 51.5847 11.612 
762 1 24.3306 53.4016 11.612 
763 1 24.3306 51.5847 13.429 
764 1 22.5137 53.4016 13.429 
765 1 26.1475 51.5847 11.612 
766 1 27.9645 53.4016 11.612 
767 1 27.9645 51.5847 13.429 
768 1 26.1475 53.4016 13.429 
769 1 29.7814 51.5847 11.612 
770 1 31.5984 53.4016 11.612 
771 1 31.5984 51.5847 13.429 
772 1 29.7814 53.4016 13.429 
773 1 33.4153 51.5847 11.612 
774 1 35.2322 53.4016 11.612 
775 1 35.2322 51.5847 13.429 
776 1 33.4153 53.4016 13.429 
777 1 37.0492 51.5847 11.612 
778 1 38.8661 53.4016 11.612 
779 1 38.8661 51.5847 13.429 
780 1 37.0492 53.4016 13.429 
781 1 40.6831 51.5847 11.612 
782 1 42.5 53.4016 11.612 
783 1 42.5 51.5847 13.429 
784 1 40.6831 53.4016 13.429 
785 1 44.3169 51.5847 11.612 
786 1 46.1339 53.4016 11.612 
787 1 46.1339 51.5847 13.429 
788 1 44.3169 53.4016 13.429 
789 1 47.9508 51.5847 11.612 
790 1 49.7678 53.4016 11.612 
791 1 49.7678 51.5847 13.429 
792 1 47.9508 53.4016 13.429 
793 1 51.5847 51.5847 11.612 
794 1 53.4016 53.4016 11.612 
795 1 53.4016 51.5847 13.429 
796 1 51.5847 53.4016 13.429 
797 1 55.2186 51.5847 11.612 
798 1 57.0355 53.4016 11.612 
799 1 57.0355 51.5847 13.429 
800 1 55.2186 53.4016 13.429 
801 1 58.8525 51.5847 11.612 
802 1 60.6694 53.4016 11.612 
803 1 60.6694 51.5847 13.429 
804 1 58.8525 53.4016 13.429 
805 1 62.4863 51.5847 11.612 
806 1 64.3033 53.4016 11.612 
807 1 64.3033 51.5847 13.429 
808 1 62.4863 53.4016 13.429 
809 1 66.1202 51.5847 11.612 
810 1 67.9372 53.4016 11.612 
811 1 67.9372 51.5847 13.429 
812 1 66.1202 53.4016 13.429 
813 1 69.7541 51.5847 11.612 
814 1 71.571 53.4016 11.612 
815 1 71.571 51.5847 13.429 
816 1 69.7541 53.4016 13.429 
817 1 11.612 55.2186 11.612 
818 1 13.429 57.0355 11.612 
819 1 13.429 55.2186 13.429 
820 1 11.612 57.0355 13.429 
821 1 15.2459 55.2186 11.612 
822 1 17.0628 57.0355 11.612 
823 1 17.0628 55.2186 13.429 
824 1 15.2459 57.0355 13.429 
825 1 18.8798 55.2186 11.612 
826 1 20.6967 57.0355 11.612 
827 1 20.6967 55.2186 13.429 
828 1 18.8798 57.0355 13.429 
829 1 22.5137 55.2186 11.612 
830 1 24.3306 57.0355 11.612 
831 1 24.3306 55.2186 13.429 
832 1 22.5137 57.0355 13.429 
833 1 26.1475 55.2186 11.612 
834 1 27.9645 57.0355 11.612 
835 1 27.9645 55.2186 13.429 
836 1 26.1475 57.0355 13.429 
837 1 29.7814 55.2186 11.612 
838 1 31.5984 57.0355 11.612 
839 1 31.5984 55.2186 13.429 
840 1 29.7814 57.0355 13.429 
841 1 33.4153 55.2186 11.612 
842 1 35.2322 57.0355 11.612 
843 1 35.2322 55.2186 13.429 
844 1 33.4153 57.0355 13.429 
845 1 37.0492 55.2186 11.612 
846 1 38.8661 57.0355 11.612 
847 1 38.8661 55.2186 13.429 
848 1 37.0492 57.0355 13.429 
849 1 40.6831 55.2186 11.612 
850 1 42.5 57.0355 11.612 
851 1 42.5 55.2186 13.429 
852 1 40.6831 57.0355 13.429 
853 1 44.3169 55.2186 11.612 
854 1 46.1339 57.0355 11.612 
855 1 46.1339 55.2186 13.429 
856 1 44.3169 57.0355 13.429 
857 1 47.9508 55.2186 11.612 
858 1 49.7678 57.0355 11.612 
859 1 49.7678 55.2186 13.429 
860 1 47.9508 57.0355 13.429 
861 1 51.5847 55.2186 11.612 
862 1 53.4016 57.0355 11.612 
863 1 53.4016 55.2186 13.429 
864 1 51.5847 57.0355 13.429 
865 1 55.2186 55.2186 11.612 
866 1 57.0355 57.0355 11.612 
867 1 57.0355 55.2186 13.429 
868 1 55.2186 57.0355 13.429 
869 1 58.8525 55.2186 11.612 
870 1 60.6694 57.0355 11.612 
871 1 60.6694 55.2186 13.429 
872 1 58.8525 57.0355 13.429 
873 1 62.4863 55.2186 11.612 
874 1 64.3033 57.0355 11.612 
875 1 64.3033 55.2186 13.429 
876 1 62.4863 57.0355 13.429 
877 1 66.1202 55.2186 11.612 
878 1 67.9372 57.0355 11.612 
879 1 67.9372 55.2186 13.429 
880 1 66.1202 57.0355 13.429 
881 1 69.7541 55.2186 11.612 
882 1 71.571 57.0355 11.612 
883 1 71.571 55.2186 13.429 
884 1 69.7541 57.0355 13.429 
885 1 11.612 58.8525 11.612 
886 1 13.429 60.6694 11.612 
887 1 13.429 58.8525 13.429 
888 1 11.612 60.6694 13.429 
889 1 15.2459 58.8525 11.612 
890 1 17.0628 60.6694 11.612 
891 1 17.0628 58.8525 13.429 
892 1 15.2459 60.6694 13.429 
893 1 18.8798 58.8525 11.612 
894 1 20.6967 60.6694 11.612 
895 1 20.6967 58.8525 13.429 
896 1 18.8798 60.6694 13.429 
897 1 22.5137 58.8525 11.612 
898 1 24.3306 60.6694 11.612 
899 1 24.3306 58.8525 13.429 
900 1 22.5137 60.6694 13.429 
901 1 26.1475 58.8525 11.612 
902 1 27.9645 60.6694 11.612 
903 1 27.9645 58.8525 13.429 
904 1 26.1475 60.6694 13.429 
905 1 29.7814 58.8525 11.612 
906 1 31.5984 60.6694 11.612 
907 1 31.5984 58.8525 13.429 
908 1 29.7814 60.6694 13.429 
909 1 33.4153 58.8525 11.612 
910 1 35.2322 60.6694 11.612 
911 1 35.2322 58.8525 13.429 
912 1 33.4153 60.6694 13.429 
913 1 37.0492 58.8525 11.612 
914 1 38.8661 60.6694 11.612 
915 1 38.8661 58.8525 13.429 
916 1 37.0492 60.6694 13.429 
917 1 40.6831 58.8525 11.612 
918 1 42.5 60.6694 11.612 
919 1 42.5 58.8525 13.429 
920 1 40.6831 60.6694 13.429 
921 1 44.3169 58.8525 11.612 
922 1 46.1339 60.6694 11.612 
923 1 46.1339 58.8525 13.429 
924 1 44.3169 60.6694 13.429 
925 1 47.9508 58.8525 11.612 
926 1 49.7678 60.6694 11.612 
927 1 49.7678 58.8525 13.429 
928 1 47.9508 60.6694 13.429 
929 1 51.5847 58.8525 11.612 
930 1 53.4016 60.6694 11.612 
931 1 53.4016 58.8525 13.429 
932 1 51.5847 60.6694 13.429 
933 1 55.2186 58.8525 11.612 
934 1 57.0355 60.6694 11.612 
935 1 57.0355 58.8525 13.429 
936 1 55.2186 60.6694 13.429 
937 1 58.8525 58.8525 11.612 
938 1 60.6694 60.6694 11.612 
939 1 60.6694 58.8525 13.429 
940 1 58.8525 60.6694 13.429 
941 1 62.4863 58.8525 11.612 
942 1 64.3033 60.6694 11.612 
943 1 64.3033 58.8525 13.429 
944 1 62.4863 60.6694 13.429 
945 1 66.1202 58.8525 11.612 
946 1 67.9372 60.6694 11.612 
947 1 67.9372 58.8525 13.429 
948 1 66.1202 60.6694 13.429 
949 1 69.7541 58.8525 11.612 
950 1 71.571 60.6694 11.612 
951 1 71.571 58.8525 13.429 
952 1 69.7541 60.6694 13.429 
953 1 11.612 62.4863 11.612 
954 1 13.429 64.3033 11.612 
955 1 13.429 62.4863 13.429 
956 1 11.612 64.3033 13.429 
957 1 15.2459 62.4863 11.612 
958 1 17.0628 64.3033 11.612 
959 1 17.0628 62.4863 13.429 
960 1 15.2459 64.3033 13.429 
961 1 18.8798 62.4863 11.612 
962 1 20.6967 64.3033 11.612 
963 1 20.6967 62.4863 13.429 
964 1 18.8798 64.3033 13.429 
965 1 22.5137 62.4863 11.612 
966 1 24.3306 64.3033 11.612 
967 1 24.3306 62.4863 13.429 
968 1 22.5137 64.3033 13.429 
969 1 26.1475 62.4863 11.612 
970 1 27.9645 64.3033 11.612 
971 1 27.9645 62.4863 13.429 
972 1 26.1475 64.3033 13.429 
973 1 29.7814 62.4863 11.612 
974 1 31.5984 64.3033 11.612 
975 1 31.5984 62.4863 13.429 
976 1 29.7814 64.3033 13.429 
977 1 33.4153 62.4863 11.612 
978 1 35.2322 64.3033 11.612 
979 1 35.2322 62.4863 13.429 
980 1 33.4153 64.3033 13.429 
981 1 37.0492 62.4863 11.612 
982 1 38.8661 64.3033 11.612 
983 1 38.8661 62.4863 13.429 
984 1 37.0492 64.3033 13.429 
985 1 40.6831 62.4863 11.612 
986 1 42.5 64.3033 11.612 
987 1 42.5 62.4863 13.429 
988 1 40.6831 64.3033 13.429 
989 1 44.3169 62.4863 11.612 
990 1 46.1339 64.3033 11.612 
991 1 46.1339 62.4863 13.429 
992 1 44.3169 64.3033 13.429 
993 1 47.9508 62.4863 11.612 
994 1 49.7678 64.3033 11.612 
995 1 49.7678 62.4863 13.429 
996 1 47.9508 64.3033 13.429 
997 1 51.5847 62.4863 11.612 
998 1 53.4016 64.3033 11.612 
999 1 53.4016 62.4863 13.429 
1000 1 51.5847 64.3033 13.429 
1001 1 55.2186 62.4863 11.612 
1002 1 57.0355 64.3033 11.612 
1003 1 57.0355 62.4863 13.429 
1004 1 55.2186 64.3033 13.429 
1005 1 58.8525 62.4863 11.612 
1006 1 60.6694 64.3033 11.612 