ITEM: TIMESTEP
9
ITEM: NUMBER OF ATOMS
19652
ITEM: BOX BOUNDS pp pp pp
-1.1422818939355432e+00 8.6142281893935575e+01
-1.9784902768623644e+00 1.4920280892021688e+02
-1.8653385217080369e+00 1.4066975727942150e+02
ITEM: ATOMS id type xu yu zu 
1 1 -1.14228 -1.97849 -1.86534 
2 1 1.42491 2.46802 -1.86534 
3 1 1.42491 5.43236 2.32687 
4 1 -1.14228 0.985849 2.32687 
5 1 3.9921 -1.97849 -1.86534 
6 1 6.5593 2.46802 -1.86534 
7 1 6.5593 5.43236 2.32687 
8 1 3.9921 0.985849 2.32687 
9 1 9.12649 -1.97849 -1.86534 
10 1 11.6937 2.46802 -1.86534 
11 1 11.6937 5.43236 2.32687 
12 1 9.12649 0.985849 2.32687 
13 1 14.2609 -1.97849 -1.86534 
14 1 16.8281 2.46802 -1.86534 
15 1 16.8281 5.43236 2.32687 
16 1 14.2609 0.985849 2.32687 
17 1 19.3953 -1.97849 -1.86534 
18 1 21.9625 2.46802 -1.86534 
19 1 21.9625 5.43236 2.32687 
20 1 19.3953 0.985849 2.32687 
21 1 24.5296 -1.97849 -1.86534 
22 1 27.0968 2.46802 -1.86534 
23 1 27.0968 5.43236 2.32687 
24 1 24.5296 0.985849 2.32687 
25 1 29.664 -1.97849 -1.86534 
26 1 32.2312 2.46802 -1.86534 
27 1 32.2312 5.43236 2.32687 
28 1 29.664 0.985849 2.32687 
29 1 34.7984 -1.97849 -1.86534 
30 1 37.3656 2.46802 -1.86534 
31 1 37.3656 5.43236 2.32687 
32 1 34.7984 0.985849 2.32687 
33 1 39.9328 -1.97849 -1.86534 
34 1 42.5 2.46802 -1.86534 
35 1 42.5 5.43236 2.32687 
36 1 39.9328 0.985849 2.32687 
37 1 45.0672 -1.97849 -1.86534 
38 1 47.6344 2.46802 -1.86534 
39 1 47.6344 5.43236 2.32687 
40 1 45.0672 0.985849 2.32687 
41 1 50.2016 -1.97849 -1.86534 
42 1 52.7688 2.46802 -1.86534 
43 1 52.7688 5.43236 2.32687 
44 1 50.2016 0.985849 2.32687 
45 1 55.336 -1.97849 -1.86534 
46 1 57.9032 2.46802 -1.86534 
47 1 57.9032 5.43236 2.32687 
48 1 55.336 0.985849 2.32687 
49 1 60.4704 -1.97849 -1.86534 
50 1 63.0375 2.46802 -1.86534 
51 1 63.0375 5.43236 2.32687 
52 1 60.4704 0.985849 2.32687 
53 1 65.6047 -1.97849 -1.86534 
54 1 68.1719 2.46802 -1.86534 
55 1 68.1719 5.43236 2.32687 
56 1 65.6047 0.985849 2.32687 
57 1 70.7391 -1.97849 -1.86534 
58 1 73.3063 2.46802 -1.86534 
59 1 73.3063 5.43236 2.32687 
60 1 70.7391 0.985849 2.32687 
61 1 75.8735 -1.97849 -1.86534 
62 1 78.4407 2.46802 -1.86534 
63 1 78.4407 5.43236 2.32687 
64 1 75.8735 0.985849 2.32687 
65 1 81.0079 -1.97849 -1.86534 
66 1 83.5751 2.46802 -1.86534 
67 1 83.5751 5.43236 2.32687 
68 1 81.0079 0.985849 2.32687 
69 1 -1.14228 6.91453 -1.86534 
70 1 1.42491 11.361 -1.86534 
71 1 1.42491 14.3254 2.32687 
72 1 -1.14228 9.87887 2.32687 
73 1 3.9921 6.91453 -1.86534 
74 1 6.5593 11.361 -1.86534 
75 1 6.5593 14.3254 2.32687 
76 1 3.9921 9.87887 2.32687 
77 1 9.12649 6.91453 -1.86534 
78 1 11.6937 11.361 -1.86534 
79 1 11.6937 14.3254 2.32687 
80 1 9.12649 9.87887 2.32687 
81 1 14.2609 6.91453 -1.86534 
82 1 16.8281 11.361 -1.86534 
83 1 16.8281 14.3254 2.32687 
84 1 14.2609 9.87887 2.32687 
85 1 19.3953 6.91453 -1.86534 
86 1 21.9625 11.361 -1.86534 
87 1 21.9625 14.3254 2.32687 
88 1 19.3953 9.87887 2.32687 
89 1 24.5296 6.91453 -1.86534 
90 1 27.0968 11.361 -1.86534 
91 1 27.0968 14.3254 2.32687 
92 1 24.5296 9.87887 2.32687 
93 1 29.664 6.91453 -1.86534 
94 1 32.2312 11.361 -1.86534 
95 1 32.2312 14.3254 2.32687 
96 1 29.664 9.87887 2.32687 
97 1 34.7984 6.91453 -1.86534 
98 1 37.3656 11.361 -1.86534 
99 1 37.3656 14.3254 2.32687 
100 1 34.7984 9.87887 2.32687 
101 1 39.9328 6.91453 -1.86534 
102 1 42.5 11.361 -1.86534 
103 1 42.5 14.3254 2.32687 
104 1 39.9328 9.87887 2.32687 
105 1 45.0672 6.91453 -1.86534 
106 1 47.6344 11.361 -1.86534 
107 1 47.6344 14.3254 2.32687 
108 1 45.0672 9.87887 2.32687 
109 1 50.2016 6.91453 -1.86534 
110 1 52.7688 11.361 -1.86534 
111 1 52.7688 14.3254 2.32687 
112 1 50.2016 9.87887 2.32687 
113 1 55.336 6.91453 -1.86534 
114 1 57.9032 11.361 -1.86534 
115 1 57.9032 14.3254 2.32687 
116 1 55.336 9.87887 2.32687 
117 1 60.4704 6.91453 -1.86534 
118 1 63.0375 11.361 -1.86534 
119 1 63.0375 14.3254 2.32687 
120 1 60.4704 9.87887 2.32687 
121 1 65.6047 6.91453 -1.86534 
122 1 68.1719 11.361 -1.86534 
123 1 68.1719 14.3254 2.32687 
124 1 65.6047 9.87887 2.32687 
125 1 70.7391 6.91453 -1.86534 
126 1 73.3063 11.361 -1.86534 
127 1 73.3063 14.3254 2.32687 
128 1 70.7391 9.87887 2.32687 
129 1 75.8735 6.91453 -1.86534 
130 1 78.4407 11.361 -1.86534 
131 1 78.4407 14.3254 2.32687 
132 1 75.8735 9.87887 2.32687 
133 1 81.0079 6.91453 -1.86534 
134 1 83.5751 11.361 -1.86534 
135 1 83.5751 14.3254 2.32687 
136 1 81.0079 9.87887 2.32687 
137 1 -1.14228 15.8075 -1.86534 
138 1 1.42491 20.2541 -1.86534 
139 1 1.42491 23.2184 2.32687 
140 1 -1.14228 18.7719 2.32687 
141 1 3.9921 15.8075 -1.86534 
142 1 6.5593 20.2541 -1.86534 
143 1 6.5593 23.2184 2.32687 
144 1 3.9921 18.7719 2.32687 
145 1 9.12649 15.8075 -1.86534 
146 1 11.6937 20.2541 -1.86534 
147 1 11.6937 23.2184 2.32687 
148 1 9.12649 18.7719 2.32687 
149 1 14.2609 15.8075 -1.86534 
150 1 16.8281 20.2541 -1.86534 
151 1 16.8281 23.2184 2.32687 
152 1 14.2609 18.7719 2.32687 
153 1 19.3953 15.8075 -1.86534 
154 1 21.9625 20.2541 -1.86534 
155 1 21.9625 23.2184 2.32687 
156 1 19.3953 18.7719 2.32687 
157 1 24.5296 15.8075 -1.86534 
158 1 27.0968 20.2541 -1.86534 
159 1 27.0968 23.2184 2.32687 
160 1 24.5296 18.7719 2.32687 
161 1 29.664 15.8075 -1.86534 
162 1 32.2312 20.2541 -1.86534 
163 1 32.2312 23.2184 2.32687 
164 1 29.664 18.7719 2.32687 
165 1 34.7984 15.8075 -1.86534 
166 1 37.3656 20.2541 -1.86534 
167 1 37.3656 23.2184 2.32687 
168 1 34.7984 18.7719 2.32687 
169 1 39.9328 15.8075 -1.86534 
170 1 42.5 20.2541 -1.86534 
171 1 42.5 23.2184 2.32687 
172 1 39.9328 18.7719 2.32687 
173 1 45.0672 15.8075 -1.86534 
174 1 47.6344 20.2541 -1.86534 
175 1 47.6344 23.2184 2.32687 
176 1 45.0672 18.7719 2.32687 
177 1 50.2016 15.8075 -1.86534 
178 1 52.7688 20.2541 -1.86534 
179 1 52.7688 23.2184 2.32687 
180 1 50.2016 18.7719 2.32687 
181 1 55.336 15.8075 -1.86534 
182 1 57.9032 20.2541 -1.86534 
183 1 57.9032 23.2184 2.32687 
184 1 55.336 18.7719 2.32687 
185 1 60.4704 15.8075 -1.86534 
186 1 63.0375 20.2541 -1.86534 
187 1 63.0375 23.2184 2.32687 
188 1 60.4704 18.7719 2.32687 
189 1 65.6047 15.8075 -1.86534 
190 1 68.1719 20.2541 -1.86534 
191 1 68.1719 23.2184 2.32687 
192 1 65.6047 18.7719 2.32687 
193 1 70.7391 15.8075 -1.86534 
194 1 73.3063 20.2541 -1.86534 
195 1 73.3063 23.2184 2.32687 
196 1 70.7391 18.7719 2.32687 
197 1 75.8735 15.8075 -1.86534 
198 1 78.4407 20.2541 -1.86534 
199 1 78.4407 23.2184 2.32687 
200 1 75.8735 18.7719 2.32687 
201 1 81.0079 15.8075 -1.86534 
202 1 83.5751 20.2541 -1.86534 
203 1 83.5751 23.2184 2.32687 
204 1 81.0079 18.7719 2.32687 
205 1 -1.14228 24.7006 -1.86534 
206 1 1.42491 29.1471 -1.86534 
207 1 1.42491 32.1114 2.32687 
208 1 -1.14228 27.6649 2.32687 
209 1 3.9921 24.7006 -1.86534 
210 1 6.5593 29.1471 -1.86534 
211 1 6.5593 32.1114 2.32687 
212 1 3.9921 27.6649 2.32687 
213 1 9.12649 24.7006 -1.86534 
214 1 11.6937 29.1471 -1.86534 
215 1 11.6937 32.1114 2.32687 
216 1 9.12649 27.6649 2.32687 
217 1 14.2609 24.7006 -1.86534 
218 1 16.8281 29.1471 -1.86534 
219 1 16.8281 32.1114 2.32687 
220 1 14.2609 27.6649 2.32687 
221 1 19.3953 24.7006 -1.86534 
222 1 21.9625 29.1471 -1.86534 
223 1 21.9625 32.1114 2.32687 
224 1 19.3953 27.6649 2.32687 
225 1 24.5296 24.7006 -1.86534 
226 1 27.0968 29.1471 -1.86534 
227 1 27.0968 32.1114 2.32687 
228 1 24.5296 27.6649 2.32687 
229 1 29.664 24.7006 -1.86534 
230 1 32.2312 29.1471 -1.86534 
231 1 32.2312 32.1114 2.32687 
232 1 29.664 27.6649 2.32687 
233 1 34.7984 24.7006 -1.86534 
234 1 37.3656 29.1471 -1.86534 
235 1 37.3656 32.1114 2.32687 
236 1 34.7984 27.6649 2.32687 
237 1 39.9328 24.7006 -1.86534 
238 1 42.5 29.1471 -1.86534 
239 1 42.5 32.1114 2.32687 
240 1 39.9328 27.6649 2.32687 
241 1 45.0672 24.7006 -1.86534 
242 1 47.6344 29.1471 -1.86534 
243 1 47.6344 32.1114 2.32687 
244 1 45.0672 27.6649 2.32687 
245 1 50.2016 24.7006 -1.86534 
246 1 52.7688 29.1471 -1.86534 
247 1 52.7688 32.1114 2.32687 
248 1 50.2016 27.6649 2.32687 
249 1 55.336 24.7006 -1.86534 
250 1 57.9032 29.1471 -1.86534 
251 1 57.9032 32.1114 2.32687 
252 1 55.336 27.6649 2.32687 
253 1 60.4704 24.7006 -1.86534 
254 1 63.0375 29.1471 -1.86534 
255 1 63.0375 32.1114 2.32687 
256 1 60.4704 27.6649 2.32687 
257 1 65.6047 24.7006 -1.86534 
258 1 68.1719 29.1471 -1.86534 
259 1 68.1719 32.1114 2.32687 
260 1 65.6047 27.6649 2.32687 
261 1 70.7391 24.7006 -1.86534 
262 1 73.3063 29.1471 -1.86534 
263 1 73.3063 32.1114 2.32687 
264 1 70.7391 27.6649 2.32687 
265 1 75.8735 24.7006 -1.86534 
266 1 78.4407 29.1471 -1.86534 
267 1 78.4407 32.1114 2.32687 
268 1 75.8735 27.6649 2.32687 
269 1 81.0079 24.7006 -1.86534 
270 1 83.5751 29.1471 -1.86534 
271 1 83.5751 32.1114 2.32687 
272 1 81.0079 27.6649 2.32687 
273 1 -1.14228 33.5936 -1.86534 
274 1 1.42491 38.0401 -1.86534 
275 1 1.42491 41.0044 2.32687 
276 1 -1.14228 36.5579 2.32687 
277 1 3.9921 33.5936 -1.86534 
278 1 6.5593 38.0401 -1.86534 
279 1 6.5593 41.0044 2.32687 
280 1 3.9921 36.5579 2.32687 
281 1 9.12649 33.5936 -1.86534 
282 1 11.6937 38.0401 -1.86534 
283 1 11.6937 41.0044 2.32687 
284 1 9.12649 36.5579 2.32687 
285 1 14.2609 33.5936 -1.86534 
286 1 16.8281 38.0401 -1.86534 
287 1 16.8281 41.0044 2.32687 
288 1 14.2609 36.5579 2.32687 
289 1 19.3953 33.5936 -1.86534 
290 1 21.9625 38.0401 -1.86534 
291 1 21.9625 41.0044 2.32687 
292 1 19.3953 36.5579 2.32687 
293 1 24.5296 33.5936 -1.86534 
294 1 27.0968 38.0401 -1.86534 
295 1 27.0968 41.0044 2.32687 
296 1 24.5296 36.5579 2.32687 
297 1 29.664 33.5936 -1.86534 
298 1 32.2312 38.0401 -1.86534 
299 1 32.2312 41.0044 2.32687 
300 1 29.664 36.5579 2.32687 
301 1 34.7984 33.5936 -1.86534 
302 1 37.3656 38.0401 -1.86534 
303 1 37.3656 41.0044 2.32687 
304 1 34.7984 36.5579 2.32687 
305 1 39.9328 33.5936 -1.86534 
306 1 42.5 38.0401 -1.86534 
307 1 42.5 41.0044 2.32687 
308 1 39.9328 36.5579 2.32687 
309 1 45.0672 33.5936 -1.86534 
310 1 47.6344 38.0401 -1.86534 
311 1 47.6344 41.0044 2.32687 
312 1 45.0672 36.5579 2.32687 
313 1 50.2016 33.5936 -1.86534 
314 1 52.7688 38.0401 -1.86534 
315 1 52.7688 41.0044 2.32687 
316 1 50.2016 36.5579 2.32687 
317 1 55.336 33.5936 -1.86534 
318 1 57.9032 38.0401 -1.86534 
319 1 57.9032 41.0044 2.32687 
320 1 55.336 36.5579 2.32687 
321 1 60.4704 33.5936 -1.86534 
322 1 63.0375 38.0401 -1.86534 
323 1 63.0375 41.0044 2.32687 
324 1 60.4704 36.5579 2.32687 
325 1 65.6047 33.5936 -1.86534 
326 1 68.1719 38.0401 -1.86534 
327 1 68.1719 41.0044 2.32687 
328 1 65.6047 36.5579 2.32687 
329 1 70.7391 33.5936 -1.86534 
330 1 73.3063 38.0401 -1.86534 
331 1 73.3063 41.0044 2.32687 
332 1 70.7391 36.5579 2.32687 
333 1 75.8735 33.5936 -1.86534 
334 1 78.4407 38.0401 -1.86534 
335 1 78.4407 41.0044 2.32687 
336 1 75.8735 36.5579 2.32687 
337 1 81.0079 33.5936 -1.86534 
338 1 83.5751 38.0401 -1.86534 
339 1 83.5751 41.0044 2.32687 
340 1 81.0079 36.5579 2.32687 
341 1 -1.14228 42.4866 -1.86534 
342 1 1.42491 46.9331 -1.86534 
343 1 1.42491 49.8974 2.32687 
344 1 -1.14228 45.4509 2.32687 
345 1 3.9921 42.4866 -1.86534 
346 1 6.5593 46.9331 -1.86534 
347 1 6.5593 49.8974 2.32687 
348 1 3.9921 45.4509 2.32687 
349 1 9.12649 42.4866 -1.86534 
350 1 11.6937 46.9331 -1.86534 
351 1 11.6937 49.8974 2.32687 
352 1 9.12649 45.4509 2.32687 
353 1 14.2609 42.4866 -1.86534 
354 1 16.8281 46.9331 -1.86534 
355 1 16.8281 49.8974 2.32687 
356 1 14.2609 45.4509 2.32687 
357 1 19.3953 42.4866 -1.86534 
358 1 21.9625 46.9331 -1.86534 
359 1 21.9625 49.8974 2.32687 
360 1 19.3953 45.4509 2.32687 
361 1 24.5296 42.4866 -1.86534 
362 1 27.0968 46.9331 -1.86534 
363 1 27.0968 49.8974 2.32687 
364 1 24.5296 45.4509 2.32687 
365 1 29.664 42.4866 -1.86534 
366 1 32.2312 46.9331 -1.86534 
367 1 32.2312 49.8974 2.32687 
368 1 29.664 45.4509 2.32687 
369 1 34.7984 42.4866 -1.86534 
370 1 37.3656 46.9331 -1.86534 
371 1 37.3656 49.8974 2.32687 
372 1 34.7984 45.4509 2.32687 
373 1 39.9328 42.4866 -1.86534 
374 1 42.5 46.9331 -1.86534 
375 1 42.5 49.8974 2.32687 
376 1 39.9328 45.4509 2.32687 
377 1 45.0672 42.4866 -1.86534 
378 1 47.6344 46.9331 -1.86534 
379 1 47.6344 49.8974 2.32687 
380 1 45.0672 45.4509 2.32687 
381 1 50.2016 42.4866 -1.86534 
382 1 52.7688 46.9331 -1.86534 
383 1 52.7688 49.8974 2.32687 
384 1 50.2016 45.4509 2.32687 
385 1 55.336 42.4866 -1.86534 
386 1 57.9032 46.9331 -1.86534 
387 1 57.9032 49.8974 2.32687 
388 1 55.336 45.4509 2.32687 
389 1 60.4704 42.4866 -1.86534 
390 1 63.0375 46.9331 -1.86534 
391 1 63.0375 49.8974 2.32687 
392 1 60.4704 45.4509 2.32687 
393 1 65.6047 42.4866 -1.86534 
394 1 68.1719 46.9331 -1.86534 
395 1 68.1719 49.8974 2.32687 
396 1 65.6047 45.4509 2.32687 
397 1 70.7391 42.4866 -1.86534 
398 1 73.3063 46.9331 -1.86534 
399 1 73.3063 49.8974 2.32687 
400 1 70.7391 45.4509 2.32687 
401 1 75.8735 42.4866 -1.86534 
402 1 78.4407 46.9331 -1.86534 
403 1 78.4407 49.8974 2.32687 
404 1 75.8735 45.4509 2.32687 
405 1 81.0079 42.4866 -1.86534 
406 1 83.5751 46.9331 -1.86534 
407 1 83.5751 49.8974 2.32687 
408 1 81.0079 45.4509 2.32687 
409 1 -1.14228 51.3796 -1.86534 
410 1 1.42491 55.8261 -1.86534 
411 1 1.42491 58.7905 2.32687 
412 1 -1.14228 54.344 2.32687 
413 1 3.9921 51.3796 -1.86534 
414 1 6.5593 55.8261 -1.86534 
415 1 6.5593 58.7905 2.32687 
416 1 3.9921 54.344 2.32687 
417 1 9.12649 51.3796 -1.86534 
418 1 11.6937 55.8261 -1.86534 
419 1 11.6937 58.7905 2.32687 
420 1 9.12649 54.344 2.32687 
421 1 14.2609 51.3796 -1.86534 
422 1 16.8281 55.8261 -1.86534 
423 1 16.8281 58.7905 2.32687 
424 1 14.2609 54.344 2.32687 
425 1 19.3953 51.3796 -1.86534 
426 1 21.9625 55.8261 -1.86534 
427 1 21.9625 58.7905 2.32687 
428 1 19.3953 54.344 2.32687 
429 1 24.5296 51.3796 -1.86534 
430 1 27.0968 55.8261 -1.86534 
431 1 27.0968 58.7905 2.32687 
432 1 24.5296 54.344 2.32687 
433 1 29.664 51.3796 -1.86534 
434 1 32.2312 55.8261 -1.86534 
435 1 32.2312 58.7905 2.32687 
436 1 29.664 54.344 2.32687 
437 1 34.7984 51.3796 -1.86534 
438 1 37.3656 55.8261 -1.86534 
439 1 37.3656 58.7905 2.32687 
440 1 34.7984 54.344 2.32687 
441 1 39.9328 51.3796 -1.86534 
442 1 42.5 55.8261 -1.86534 
443 1 42.5 58.7905 2.32687 
444 1 39.9328 54.344 2.32687 
445 1 45.0672 51.3796 -1.86534 
446 1 47.6344 55.8261 -1.86534 
447 1 47.6344 58.7905 2.32687 
448 1 45.0672 54.344 2.32687 
449 1 50.2016 51.3796 -1.86534 
450 1 52.7688 55.8261 -1.86534 
451 1 52.7688 58.7905 2.32687 
452 1 50.2016 54.344 2.32687 
453 1 55.336 51.3796 -1.86534 
454 1 57.9032 55.8261 -1.86534 
455 1 57.9032 58.7905 2.32687 
456 1 55.336 54.344 2.32687 
457 1 60.4704 51.3796 -1.86534 
458 1 63.0375 55.8261 -1.86534 
459 1 63.0375 58.7905 2.32687 
460 1 60.4704 54.344 2.32687 
461 1 65.6047 51.3796 -1.86534 
462 1 68.1719 55.8261 -1.86534 
463 1 68.1719 58.7905 2.32687 
464 1 65.6047 54.344 2.32687 
465 1 70.7391 51.3796 -1.86534 
466 1 73.3063 55.8261 -1.86534 
467 1 73.3063 58.7905 2.32687 
468 1 70.7391 54.344 2.32687 
469 1 75.8735 51.3796 -1.86534 
470 1 78.4407 55.8261 -1.86534 
471 1 78.4407 58.7905 2.32687 
472 1 75.8735 54.344 2.32687 
473 1 81.0079 51.3796 -1.86534 
474 1 83.5751 55.8261 -1.86534 
475 1 83.5751 58.7905 2.32687 
476 1 81.0079 54.344 2.32687 
477 1 -1.14228 60.2726 -1.86534 
478 1 1.42491 64.7191 -1.86534 
479 1 1.42491 67.6835 2.32687 
480 1 -1.14228 63.237 2.32687 
481 1 3.9921 60.2726 -1.86534 
482 1 6.5593 64.7191 -1.86534 
483 1 6.5593 67.6835 2.32687 
484 1 3.9921 63.237 2.32687 
485 1 9.12649 60.2726 -1.86534 
486 1 11.6937 64.7191 -1.86534 
487 1 11.6937 67.6835 2.32687 
488 1 9.12649 63.237 2.32687 
489 1 14.2609 60.2726 -1.86534 
490 1 16.8281 64.7191 -1.86534 
491 1 16.8281 67.6835 2.32687 
492 1 14.2609 63.237 2.32687 
493 1 19.3953 60.2726 -1.86534 
494 1 21.9625 64.7191 -1.86534 
495 1 21.9625 67.6835 2.32687 
496 1 19.3953 63.237 2.32687 
497 1 24.5296 60.2726 -1.86534 
498 1 27.0968 64.7191 -1.86534 
499 1 27.0968 67.6835 2.32687 
500 1 24.5296 63.237 2.32687 
501 1 29.664 60.2726 -1.86534 
502 1 32.2312 64.7191 -1.86534 
503 1 32.2312 67.6835 2.32687 
504 1 29.664 63.237 2.32687 
505 1 34.7984 60.2726 -1.86534 
506 1 37.3656 64.7191 -1.86534 
507 1 37.3656 67.6835 2.32687 
508 1 34.7984 63.237 2.32687 
509 1 39.9328 60.2726 -1.86534 
510 1 42.5 64.7191 -1.86534 
511 1 42.5 67.6835 2.32687 
512 1 39.9328 63.237 2.32687 
513 1 45.0672 60.2726 -1.86534 
514 1 47.6344 64.7191 -1.86534 
515 1 47.6344 67.6835 2.32687 
516 1 45.0672 63.237 2.32687 
517 1 50.2016 60.2726 -1.86534 
518 1 52.7688 64.7191 -1.86534 
519 1 52.7688 67.6835 2.32687 
520 1 50.2016 63.237 2.32687 
521 1 55.336 60.2726 -1.86534 
522 1 57.9032 64.7191 -1.86534 
523 1 57.9032 67.6835 2.32687 
524 1 55.336 63.237 2.32687 
525 1 60.4704 60.2726 -1.86534 
526 1 63.0375 64.7191 -1.86534 
527 1 63.0375 67.6835 2.32687 
528 1 60.4704 63.237 2.32687 
529 1 65.6047 60.2726 -1.86534 
530 1 68.1719 64.7191 -1.86534 
531 1 68.1719 67.6835 2.32687 
532 1 65.6047 63.237 2.32687 
533 1 70.7391 60.2726 -1.86534 
534 1 73.3063 64.7191 -1.86534 
535 1 73.3063 67.6835 2.32687 
536 1 70.7391 63.237 2.32687 
537 1 75.8735 60.2726 -1.86534 
538 1 78.4407 64.7191 -1.86534 
539 1 78.4407 67.6835 2.32687 
540 1 75.8735 63.237 2.32687 
541 1 81.0079 60.2726 -1.86534 
542 1 83.5751 64.7191 -1.86534 
543 1 83.5751 67.6835 2.32687 
544 1 81.0079 63.237 2.32687 
545 1 -1.14228 69.1657 -1.86534 
546 1 1.42491 73.6122 -1.86534 
547 1 1.42491 76.5765 2.32687 
548 1 -1.14228 72.13 2.32687 
549 1 3.9921 69.1657 -1.86534 
550 1 6.5593 73.6122 -1.86534 
551 1 6.5593 76.5765 2.32687 
552 1 3.9921 72.13 2.32687 
553 1 9.12649 69.1657 -1.86534 
554 1 11.6937 73.6122 -1.86534 
555 1 11.6937 76.5765 2.32687 
556 1 9.12649 72.13 2.32687 
557 1 14.2609 69.1657 -1.86534 
558 1 16.8281 73.6122 -1.86534 
559 1 16.8281 76.5765 2.32687 
560 1 14.2609 72.13 2.32687 
561 1 19.3953 69.1657 -1.86534 
562 1 21.9625 73.6122 -1.86534 
563 1 21.9625 76.5765 2.32687 
564 1 19.3953 72.13 2.32687 
565 1 24.5296 69.1657 -1.86534 
566 1 27.0968 73.6122 -1.86534 
567 1 27.0968 76.5765 2.32687 
568 1 24.5296 72.13 2.32687 
569 1 29.664 69.1657 -1.86534 
570 1 32.2312 73.6122 -1.86534 
571 1 32.2312 76.5765 2.32687 
572 1 29.664 72.13 2.32687 
573 1 34.7984 69.1657 -1.86534 
574 1 37.3656 73.6122 -1.86534 
575 1 37.3656 76.5765 2.32687 
576 1 34.7984 72.13 2.32687 
577 1 39.9328 69.1657 -1.86534 
578 1 42.5 73.6122 -1.86534 
579 1 42.5 76.5765 2.32687 
580 1 39.9328 72.13 2.32687 
581 1 45.0672 69.1657 -1.86534 
582 1 47.6344 73.6122 -1.86534 
583 1 47.6344 76.5765 2.32687 
584 1 45.0672 72.13 2.32687 
585 1 50.2016 69.1657 -1.86534 
586 1 52.7688 73.6122 -1.86534 
587 1 52.7688 76.5765 2.32687 
588 1 50.2016 72.13 2.32687 
589 1 55.336 69.1657 -1.86534 
590 1 57.9032 73.6122 -1.86534 
591 1 57.9032 76.5765 2.32687 
592 1 55.336 72.13 2.32687 
593 1 60.4704 69.1657 -1.86534 
594 1 63.0375 73.6122 -1.86534 
595 1 63.0375 76.5765 2.32687 
596 1 60.4704 72.13 2.32687 
597 1 65.6047 69.1657 -1.86534 
598 1 68.1719 73.6122 -1.86534 
599 1 68.1719 76.5765 2.32687 
600 1 65.6047 72.13 2.32687 
601 1 70.7391 69.1657 -1.86534 
602 1 73.3063 73.6122 -1.86534 
603 1 73.3063 76.5765 2.32687 
604 1 70.7391 72.13 2.32687 
605 1 75.8735 69.1657 -1.86534 
606 1 78.4407 73.6122 -1.86534 
607 1 78.4407 76.5765 2.32687 
608 1 75.8735 72.13 2.32687 
609 1 81.0079 69.1657 -1.86534 
610 1 83.5751 73.6122 -1.86534 
611 1 83.5751 76.5765 2.32687 
612 1 81.0079 72.13 2.32687 
613 1 -1.14228 78.0587 -1.86534 
614 1 1.42491 82.5052 -1.86534 
615 1 1.42491 85.4695 2.32687 
616 1 -1.14228 81.023 2.32687 
617 1 3.9921 78.0587 -1.86534 
618 1 6.5593 82.5052 -1.86534 
619 1 6.5593 85.4695 2.32687 
620 1 3.9921 81.023 2.32687 
621 1 9.12649 78.0587 -1.86534 
622 1 11.6937 82.5052 -1.86534 
623 1 11.6937 85.4695 2.32687 
624 1 9.12649 81.023 2.32687 
625 1 14.2609 78.0587 -1.86534 
626 1 16.8281 82.5052 -1.86534 
627 1 16.8281 85.4695 2.32687 
628 1 14.2609 81.023 2.32687 
629 1 19.3953 78.0587 -1.86534 
630 1 21.9625 82.5052 -1.86534 
631 1 21.9625 85.4695 2.32687 
632 1 19.3953 81.023 2.32687 
633 1 24.5296 78.0587 -1.86534 
634 1 27.0968 82.5052 -1.86534 
635 1 27.0968 85.4695 2.32687 
636 1 24.5296 81.023 2.32687 
637 1 29.664 78.0587 -1.86534 
638 1 32.2312 82.5052 -1.86534 
639 1 32.2312 85.4695 2.32687 
640 1 29.664 81.023 2.32687 
641 1 34.7984 78.0587 -1.86534 
642 1 37.3656 82.5052 -1.86534 
643 1 37.3656 85.4695 2.32687 
644 1 34.7984 81.023 2.32687 
645 1 39.9328 78.0587 -1.86534 
646 1 42.5 82.5052 -1.86534 
647 1 42.5 85.4695 2.32687 
648 1 39.9328 81.023 2.32687 
649 1 45.0672 78.0587 -1.86534 
650 1 47.6344 82.5052 -1.86534 
651 1 47.6344 85.4695 2.32687 
652 1 45.0672 81.023 2.32687 
653 1 50.2016 78.0587 -1.86534 
654 1 52.7688 82.5052 -1.86534 
655 1 52.7688 85.4695 2.32687 
656 1 50.2016 81.023 2.32687 
657 1 55.336 78.0587 -1.86534 
658 1 57.9032 82.5052 -1.86534 
659 1 57.9032 85.4695 2.32687 
660 1 55.336 81.023 2.32687 
661 1 60.4704 78.0587 -1.86534 
662 1 63.0375 82.5052 -1.86534 
663 1 63.0375 85.4695 2.32687 
664 1 60.4704 81.023 2.32687 
665 1 65.6047 78.0587 -1.86534 
666 1 68.1719 82.5052 -1.86534 
667 1 68.1719 85.4695 2.32687 
668 1 65.6047 81.023 2.32687 
669 1 70.7391 78.0587 -1.86534 
670 1 73.3063 82.5052 -1.86534 
671 1 73.3063 85.4695 2.32687 
672 1 70.7391 81.023 2.32687 
673 1 75.8735 78.0587 -1.86534 
674 1 78.4407 82.5052 -1.86534 
675 1 78.4407 85.4695 2.32687 
676 1 75.8735 81.023 2.32687 
677 1 81.0079 78.0587 -1.86534 
678 1 83.5751 82.5052 -1.86534 
679 1 83.5751 85.4695 2.32687 
680 1 81.0079 81.023 2.32687 
681 1 -1.14228 86.9517 -1.86534 
682 1 1.42491 91.3982 -1.86534 
683 1 1.42491 94.3625 2.32687 
684 1 -1.14228 89.916 2.32687 
685 1 3.9921 86.9517 -1.86534 
686 1 6.5593 91.3982 -1.86534 
687 1 6.5593 94.3625 2.32687 
688 1 3.9921 89.916 2.32687 
689 1 9.12649 86.9517 -1.86534 
690 1 11.6937 91.3982 -1.86534 
691 1 11.6937 94.3625 2.32687 
692 1 9.12649 89.916 2.32687 
693 1 14.2609 86.9517 -1.86534 
694 1 16.8281 91.3982 -1.86534 
695 1 16.8281 94.3625 2.32687 
696 1 14.2609 89.916 2.32687 
697 1 19.3953 86.9517 -1.86534 
698 1 21.9625 91.3982 -1.86534 
699 1 21.9625 94.3625 2.32687 
700 1 19.3953 89.916 2.32687 
701 1 24.5296 86.9517 -1.86534 
702 1 27.0968 91.3982 -1.86534 
703 1 27.0968 94.3625 2.32687 
704 1 24.5296 89.916 2.32687 
705 1 29.664 86.9517 -1.86534 
706 1 32.2312 91.3982 -1.86534 
707 1 32.2312 94.3625 2.32687 
708 1 29.664 89.916 2.32687 
709 1 34.7984 86.9517 -1.86534 
710 1 37.3656 91.3982 -1.86534 
711 1 37.3656 94.3625 2.32687 
712 1 34.7984 89.916 2.32687 
713 1 39.9328 86.9517 -1.86534 
714 1 42.5 91.3982 -1.86534 
715 1 42.5 94.3625 2.32687 
716 1 39.9328 89.916 2.32687 
717 1 45.0672 86.9517 -1.86534 
718 1 47.6344 91.3982 -1.86534 
719 1 47.6344 94.3625 2.32687 
720 1 45.0672 89.916 2.32687 
721 1 50.2016 86.9517 -1.86534 
722 1 52.7688 91.3982 -1.86534 
723 1 52.7688 94.3625 2.32687 
724 1 50.2016 89.916 2.32687 
725 1 55.336 86.9517 -1.86534 
726 1 57.9032 91.3982 -1.86534 
727 1 57.9032 94.3625 2.32687 
728 1 55.336 89.916 2.32687 
729 1 60.4704 86.9517 -1.86534 
730 1 63.0375 91.3982 -1.86534 
731 1 63.0375 94.3625 2.32687 
732 1 60.4704 89.916 2.32687 
733 1 65.6047 86.9517 -1.86534 
734 1 68.1719 91.3982 -1.86534 
735 1 68.1719 94.3625 2.32687 
736 1 65.6047 89.916 2.32687 
737 1 70.7391 86.9517 -1.86534 
738 1 73.3063 91.3982 -1.86534 
739 1 73.3063 94.3625 2.32687 
740 1 70.7391 89.916 2.32687 
741 1 75.8735 86.9517 -1.86534 
742 1 78.4407 91.3982 -1.86534 
743 1 78.4407 94.3625 2.32687 
744 1 75.8735 89.916 2.32687 
745 1 81.0079 86.9517 -1.86534 
746 1 83.5751 91.3982 -1.86534 
747 1 83.5751 94.3625 2.32687 
748 1 81.0079 89.916 2.32687 
749 1 -1.14228 95.8447 -1.86534 
750 1 1.42491 100.291 -1.86534 
751 1 1.42491 103.256 2.32687 
752 1 -1.14228 98.809 2.32687 
753 1 3.9921 95.8447 -1.86534 
754 1 6.5593 100.291 -1.86534 
755 1 6.5593 103.256 2.32687 
756 1 3.9921 98.809 2.32687 
757 1 9.12649 95.8447 -1.86534 
758 1 11.6937 100.291 -1.86534 
759 1 11.6937 103.256 2.32687 
760 1 9.12649 98.809 2.32687 
761 1 14.2609 95.8447 -1.86534 
762 1 16.8281 100.291 -1.86534 
763 1 16.8281 103.256 2.32687 
764 1 14.2609 98.809 2.32687 
765 1 19.3953 95.8447 -1.86534 
766 1 21.9625 100.291 -1.86534 
767 1 21.9625 103.256 2.32687 
768 1 19.3953 98.809 2.32687 
769 1 24.5296 95.8447 -1.86534 
770 1 27.0968 100.291 -1.86534 
771 1 27.0968 103.256 2.32687 
772 1 24.5296 98.809 2.32687 
773 1 29.664 95.8447 -1.86534 
774 1 32.2312 100.291 -1.86534 
775 1 32.2312 103.256 2.32687 
776 1 29.664 98.809 2.32687 
777 1 34.7984 95.8447 -1.86534 
778 1 37.3656 100.291 -1.86534 
779 1 37.3656 103.256 2.32687 
780 1 34.7984 98.809 2.32687 
781 1 39.9328 95.8447 -1.86534 
782 1 42.5 100.291 -1.86534 
783 1 42.5 103.256 2.32687 
784 1 39.9328 98.809 2.32687 
785 1 45.0672 95.8447 -1.86534 
786 1 47.6344 100.291 -1.86534 
787 1 47.6344 103.256 2.32687 
788 1 45.0672 98.809 2.32687 
789 1 50.2016 95.8447 -1.86534 
790 1 52.7688 100.291 -1.86534 
791 1 52.7688 103.256 2.32687 
792 1 50.2016 98.809 2.32687 
793 1 55.336 95.8447 -1.86534 
794 1 57.9032 100.291 -1.86534 
795 1 57.9032 103.256 2.32687 
796 1 55.336 98.809 2.32687 
797 1 60.4704 95.8447 -1.86534 
798 1 63.0375 100.291 -1.86534 
799 1 63.0375 103.256 2.32687 
800 1 60.4704 98.809 2.32687 
801 1 65.6047 95.8447 -1.86534 
802 1 68.1719 100.291 -1.86534 
803 1 68.1719 103.256 2.32687 
804 1 65.6047 98.809 2.32687 
805 1 70.7391 95.8447 -1.86534 
806 1 73.3063 100.291 -1.86534 
807 1 73.3063 103.256 2.32687 
808 1 70.7391 98.809 2.32687 
809 1 75.8735 95.8447 -1.86534 
810 1 78.4407 100.291 -1.86534 
811 1 78.4407 103.256 2.32687 
812 1 75.8735 98.809 2.32687 
813 1 81.0079 95.8447 -1.86534 
814 1 83.5751 100.291 -1.86534 
815 1 83.5751 103.256 2.32687 
816 1 81.0079 98.809 2.32687 
817 1 -1.14228 104.738 -1.86534 
818 1 1.42491 109.184 -1.86534 
819 1 1.42491 112.149 2.32687 
820 1 -1.14228 107.702 2.32687 
821 1 3.9921 104.738 -1.86534 
822 1 6.5593 109.184 -1.86534 
823 1 6.5593 112.149 2.32687 
824 1 3.9921 107.702 2.32687 
825 1 9.12649 104.738 -1.86534 
826 1 11.6937 109.184 -1.86534 
827 1 11.6937 112.149 2.32687 
828 1 9.12649 107.702 2.32687 
829 1 14.2609 104.738 -1.86534 
830 1 16.8281 109.184 -1.86534 
831 1 16.8281 112.149 2.32687 
832 1 14.2609 107.702 2.32687 
833 1 19.3953 104.738 -1.86534 
834 1 21.9625 109.184 -1.86534 
835 1 21.9625 112.149 2.32687 
836 1 19.3953 107.702 2.32687 
837 1 24.5296 104.738 -1.86534 
838 1 27.0968 109.184 -1.86534 
839 1 27.0968 112.149 2.32687 
840 1 24.5296 107.702 2.32687 
841 1 29.664 104.738 -1.86534 
842 1 32.2312 109.184 -1.86534 
843 1 32.2312 112.149 2.32687 
844 1 29.664 107.702 2.32687 
845 1 34.7984 104.738 -1.86534 
846 1 37.3656 109.184 -1.86534 
847 1 37.3656 112.149 2.32687 
848 1 34.7984 107.702 2.32687 
849 1 39.9328 104.738 -1.86534 
850 1 42.5 109.184 -1.86534 
851 1 42.5 112.149 2.32687 
852 1 39.9328 107.702 2.32687 
853 1 45.0672 104.738 -1.86534 
854 1 47.6344 109.184 -1.86534 
855 1 47.6344 112.149 2.32687 
856 1 45.0672 107.702 2.32687 
857 1 50.2016 104.738 -1.86534 
858 1 52.7688 109.184 -1.86534 
859 1 52.7688 112.149 2.32687 
860 1 50.2016 107.702 2.32687 
861 1 55.336 104.738 -1.86534 
862 1 57.9032 109.184 -1.86534 
863 1 57.9032 112.149 2.32687 
864 1 55.336 107.702 2.32687 
865 1 60.4704 104.738 -1.86534 
866 1 63.0375 109.184 -1.86534 
867 1 63.0375 112.149 2.32687 
868 1 60.4704 107.702 2.32687 
869 1 65.6047 104.738 -1.86534 
870 1 68.1719 109.184 -1.86534 
871 1 68.1719 112.149 2.32687 
872 1 65.6047 107.702 2.32687 
873 1 70.7391 104.738 -1.86534 
874 1 73.3063 109.184 -1.86534 
875 1 73.3063 112.149 2.32687 
876 1 70.7391 107.702 2.32687 
877 1 75.8735 104.738 -1.86534 
878 1 78.4407 109.184 -1.86534 
879 1 78.4407 112.149 2.32687 
880 1 75.8735 107.702 2.32687 
881 1 81.0079 104.738 -1.86534 
882 1 83.5751 109.184 -1.86534 
883 1 83.5751 112.149 2.32687 
884 1 81.0079 107.702 2.32687 
885 1 -1.14228 113.631 -1.86534 
886 1 1.42491 118.077 -1.86534 
887 1 1.42491 121.042 2.32687 
888 1 -1.14228 116.595 2.32687 
889 1 3.9921 113.631 -1.86534 
890 1 6.5593 118.077 -1.86534 
891 1 6.5593 121.042 2.32687 
892 1 3.9921 116.595 2.32687 
893 1 9.12649 113.631 -1.86534 
894 1 11.6937 118.077 -1.86534 
895 1 11.6937 121.042 2.32687 
896 1 9.12649 116.595 2.32687 
897 1 14.2609 113.631 -1.86534 
898 1 16.8281 118.077 -1.86534 
899 1 16.8281 121.042 2.32687 
900 1 14.2609 116.595 2.32687 
901 1 19.3953 113.631 -1.86534 
902 1 21.9625 118.077 -1.86534 
903 1 21.9625 121.042 2.32687 
904 1 19.3953 116.595 2.32687 
905 1 24.5296 113.631 -1.86534 
906 1 27.0968 118.077 -1.86534 
907 1 27.0968 121.042 2.32687 
908 1 24.5296 116.595 2.32687 
909 1 29.664 113.631 -1.86534 
910 1 32.2312 118.077 -1.86534 
911 1 32.2312 121.042 2.32687 
912 1 29.664 116.595 2.32687 
913 1 34.7984 113.631 -1.86534 
914 1 37.3656 118.077 -1.86534 
915 1 37.3656 121.042 2.32687 
916 1 34.7984 116.595 2.32687 
917 1 39.9328 113.631 -1.86534 
918 1 42.5 118.077 -1.86534 
919 1 42.5 121.042 2.32687 
920 1 39.9328 116.595 2.32687 
921 1 45.0672 113.631 -1.86534 
922 1 47.6344 118.077 -1.86534 
923 1 47.6344 121.042 2.32687 
924 1 45.0672 116.595 2.32687 
925 1 50.2016 113.631 -1.86534 
926 1 52.7688 118.077 -1.86534 
927 1 52.7688 121.042 2.32687 
928 1 50.2016 116.595 2.32687 
929 1 55.336 113.631 -1.86534 
930 1 57.9032 118.077 -1.86534 
931 1 57.9032 121.042 2.32687 
932 1 55.336 116.595 2.32687 
933 1 60.4704 113.631 -1.86534 
934 1 63.0375 118.077 -1.86534 
935 1 63.0375 121.042 2.32687 
936 1 60.4704 116.595 2.32687 
937 1 65.6047 113.631 -1.86534 
938 1 68.1719 118.077 -1.86534 
939 1 68.1719 121.042 2.32687 
940 1 65.6047 116.595 2.32687 
941 1 70.7391 113.631 -1.86534 
942 1 73.3063 118.077 -1.86534 
943 1 73.3063 121.042 2.32687 
944 1 70.7391 116.595 2.32687 
945 1 75.8735 113.631 -1.86534 
946 1 78.4407 118.077 -1.86534 
947 1 78.4407 121.042 2.32687 
948 1 75.8735 116.595 2.32687 
949 1 81.0079 113.631 -1.86534 
950 1 83.5751 118.077 -1.86534 
951 1 83.5751 121.042 2.32687 
952 1 81.0079 116.595 2.32687 
953 1 -1.14228 122.524 -1.86534 
954 1 1.42491 126.97 -1.86534 
955 1 1.42491 129.935 2.32687 
956 1 -1.14228 125.488 2.32687 