ITEM: TIMESTEP
28
ITEM: NUMBER OF ATOMS
9826
ITEM: BOX BOUNDS pp pp pp
-5.4983553701115655e+00 9.0498355370111710e+01
-5.4983553701115655e+00 9.0498355370111710e+01
-5.4983553701115655e+00 9.0498355370111710e+01
ITEM: ATOMS id type xu yu zu 
1 2 -5.49836 -5.49836 -5.49836 
2 2 -2.67492 -2.67492 -2.67492 
3 2 0.14851 -5.49836 -5.49836 
4 2 2.97194 -2.67492 -2.67492 
5 2 5.79538 -5.49836 -5.49836 
6 2 8.61881 -2.67492 -2.67492 
7 2 11.4422 -5.49836 -5.49836 
8 2 14.2657 -2.67492 -2.67492 
9 2 17.0891 -5.49836 -5.49836 
10 2 19.9125 -2.67492 -2.67492 
11 2 22.736 -5.49836 -5.49836 
12 2 25.5594 -2.67492 -2.67492 
13 2 28.3828 -5.49836 -5.49836 
14 2 31.2063 -2.67492 -2.67492 
15 2 34.0297 -5.49836 -5.49836 
16 2 36.8531 -2.67492 -2.67492 
17 2 39.6766 -5.49836 -5.49836 
18 2 42.5 -2.67492 -2.67492 
19 2 45.3234 -5.49836 -5.49836 
20 2 48.1469 -2.67492 -2.67492 
21 2 50.9703 -5.49836 -5.49836 
22 2 53.7937 -2.67492 -2.67492 
23 2 56.6172 -5.49836 -5.49836 
24 2 59.4406 -2.67492 -2.67492 
25 2 62.264 -5.49836 -5.49836 
26 2 65.0875 -2.67492 -2.67492 
27 2 67.9109 -5.49836 -5.49836 
28 2 70.7343 -2.67492 -2.67492 
29 2 73.5578 -5.49836 -5.49836 
30 2 76.3812 -2.67492 -2.67492 
31 2 79.2046 -5.49836 -5.49836 
32 2 82.0281 -2.67492 -2.67492 
33 2 84.8515 -5.49836 -5.49836 
34 2 87.6749 -2.67492 -2.67492 
35 2 -5.49836 0.14851 -5.49836 
36 2 -2.67492 2.97194 -2.67492 
37 2 0.14851 0.14851 -5.49836 
38 2 2.97194 2.97194 -2.67492 
39 2 5.79538 0.14851 -5.49836 
40 2 8.61881 2.97194 -2.67492 
41 2 11.4422 0.14851 -5.49836 
42 2 14.2657 2.97194 -2.67492 
43 2 17.0891 0.14851 -5.49836 
44 2 19.9125 2.97194 -2.67492 
45 2 22.736 0.14851 -5.49836 
46 2 25.5594 2.97194 -2.67492 
47 2 28.3828 0.14851 -5.49836 
48 2 31.2063 2.97194 -2.67492 
49 2 34.0297 0.14851 -5.49836 
50 2 36.8531 2.97194 -2.67492 
51 2 39.6766 0.14851 -5.49836 
52 2 42.5 2.97194 -2.67492 
53 2 45.3234 0.14851 -5.49836 
54 2 48.1469 2.97194 -2.67492 
55 2 50.9703 0.14851 -5.49836 
56 2 53.7937 2.97194 -2.67492 
57 2 56.6172 0.14851 -5.49836 
58 2 59.4406 2.97194 -2.67492 
59 2 62.264 0.14851 -5.49836 
60 2 65.0875 2.97194 -2.67492 
61 2 67.9109 0.14851 -5.49836 
62 2 70.7343 2.97194 -2.67492 
63 2 73.5578 0.14851 -5.49836 
64 2 76.3812 2.97194 -2.67492 
65 2 79.2046 0.14851 -5.49836 
66 2 82.0281 2.97194 -2.67492 
67 2 84.8515 0.14851 -5.49836 
68 2 87.6749 2.97194 -2.67492 
69 2 -5.49836 5.79538 -5.49836 
70 2 -2.67492 8.61881 -2.67492 
71 2 0.14851 5.79538 -5.49836 
72 2 2.97194 8.61881 -2.67492 
73 2 5.79538 5.79538 -5.49836 
74 2 8.61881 8.61881 -2.67492 
75 2 11.4422 5.79538 -5.49836 
76 2 14.2657 8.61881 -2.67492 
77 2 17.0891 5.79538 -5.49836 
78 2 19.9125 8.61881 -2.67492 
79 2 22.736 5.79538 -5.49836 
80 2 25.5594 8.61881 -2.67492 
81 2 28.3828 5.79538 -5.49836 
82 2 31.2063 8.61881 -2.67492 
83 2 34.0297 5.79538 -5.49836 
84 2 36.8531 8.61881 -2.67492 
85 2 39.6766 5.79538 -5.49836 
86 2 42.5 8.61881 -2.67492 
87 2 45.3234 5.79538 -5.49836 
88 2 48.1469 8.61881 -2.67492 
89 2 50.9703 5.79538 -5.49836 
90 2 53.7937 8.61881 -2.67492 
91 2 56.6172 5.79538 -5.49836 
92 2 59.4406 8.61881 -2.67492 
93 2 62.264 5.79538 -5.49836 
94 2 65.0875 8.61881 -2.67492 
95 2 67.9109 5.79538 -5.49836 
96 2 70.7343 8.61881 -2.67492 
97 2 73.5578 5.79538 -5.49836 
98 2 76.3812 8.61881 -2.67492 
99 2 79.2046 5.79538 -5.49836 
100 2 82.0281 8.61881 -2.67492 
101 2 84.8515 5.79538 -5.49836 
102 2 87.6749 8.61881 -2.67492 
103 2 -5.49836 11.4422 -5.49836 
104 2 -2.67492 14.2657 -2.67492 
105 2 0.14851 11.4422 -5.49836 
106 2 2.97194 14.2657 -2.67492 
107 2 5.79538 11.4422 -5.49836 
108 2 8.61881 14.2657 -2.67492 
109 2 11.4422 11.4422 -5.49836 
110 2 14.2657 14.2657 -2.67492 
111 2 17.0891 11.4422 -5.49836 
112 2 19.9125 14.2657 -2.67492 
113 2 22.736 11.4422 -5.49836 
114 2 25.5594 14.2657 -2.67492 
115 2 28.3828 11.4422 -5.49836 
116 2 31.2063 14.2657 -2.67492 
117 2 34.0297 11.4422 -5.49836 
118 2 36.8531 14.2657 -2.67492 
119 2 39.6766 11.4422 -5.49836 
120 2 42.5 14.2657 -2.67492 
121 2 45.3234 11.4422 -5.49836 
122 2 48.1469 14.2657 -2.67492 
123 2 50.9703 11.4422 -5.49836 
124 2 53.7937 14.2657 -2.67492 
125 2 56.6172 11.4422 -5.49836 
126 2 59.4406 14.2657 -2.67492 
127 2 62.264 11.4422 -5.49836 
128 2 65.0875 14.2657 -2.67492 
129 2 67.9109 11.4422 -5.49836 
130 2 70.7343 14.2657 -2.67492 
131 2 73.5578 11.4422 -5.49836 
132 2 76.3812 14.2657 -2.67492 
133 2 79.2046 11.4422 -5.49836 
134 2 82.0281 14.2657 -2.67492 
135 2 84.8515 11.4422 -5.49836 
136 2 87.6749 14.2657 -2.67492 
137 2 -5.49836 17.0891 -5.49836 
138 2 -2.67492 19.9125 -2.67492 
139 2 0.14851 17.0891 -5.49836 
140 2 2.97194 19.9125 -2.67492 
141 2 5.79538 17.0891 -5.49836 
142 2 8.61881 19.9125 -2.67492 
143 2 11.4422 17.0891 -5.49836 
144 2 14.2657 19.9125 -2.67492 
145 2 17.0891 17.0891 -5.49836 
146 2 19.9125 19.9125 -2.67492 
147 2 22.736 17.0891 -5.49836 
148 2 25.5594 19.9125 -2.67492 
149 2 28.3828 17.0891 -5.49836 
150 2 31.2063 19.9125 -2.67492 
151 2 34.0297 17.0891 -5.49836 
152 2 36.8531 19.9125 -2.67492 
153 2 39.6766 17.0891 -5.49836 
154 2 42.5 19.9125 -2.67492 
155 2 45.3234 17.0891 -5.49836 
156 2 48.1469 19.9125 -2.67492 
157 2 50.9703 17.0891 -5.49836 
158 2 53.7937 19.9125 -2.67492 
159 2 56.6172 17.0891 -5.49836 
160 2 59.4406 19.9125 -2.67492 
161 2 62.264 17.0891 -5.49836 
162 2 65.0875 19.9125 -2.67492 
163 2 67.9109 17.0891 -5.49836 
164 2 70.7343 19.9125 -2.67492 
165 2 73.5578 17.0891 -5.49836 
166 2 76.3812 19.9125 -2.67492 
167 2 79.2046 17.0891 -5.49836 
168 2 82.0281 19.9125 -2.67492 
169 2 84.8515 17.0891 -5.49836 
170 2 87.6749 19.9125 -2.67492 
171 2 -5.49836 22.736 -5.49836 
172 2 -2.67492 25.5594 -2.67492 
173 2 0.14851 22.736 -5.49836 
174 2 2.97194 25.5594 -2.67492 
175 2 5.79538 22.736 -5.49836 
176 2 8.61881 25.5594 -2.67492 
177 2 11.4422 22.736 -5.49836 
178 2 14.2657 25.5594 -2.67492 
179 2 17.0891 22.736 -5.49836 
180 2 19.9125 25.5594 -2.67492 
181 2 22.736 22.736 -5.49836 
182 2 25.5594 25.5594 -2.67492 
183 2 28.3828 22.736 -5.49836 
184 2 31.2063 25.5594 -2.67492 
185 2 34.0297 22.736 -5.49836 
186 2 36.8531 25.5594 -2.67492 
187 2 39.6766 22.736 -5.49836 
188 2 42.5 25.5594 -2.67492 
189 2 45.3234 22.736 -5.49836 
190 2 48.1469 25.5594 -2.67492 
191 2 50.9703 22.736 -5.49836 
192 2 53.7937 25.5594 -2.67492 
193 2 56.6172 22.736 -5.49836 
194 2 59.4406 25.5594 -2.67492 
195 2 62.264 22.736 -5.49836 
196 2 65.0875 25.5594 -2.67492 
197 2 67.9109 22.736 -5.49836 
198 2 70.7343 25.5594 -2.67492 
199 2 73.5578 22.736 -5.49836 
200 2 76.3812 25.5594 -2.67492 
201 2 79.2046 22.736 -5.49836 
202 2 82.0281 25.5594 -2.67492 
203 2 84.8515 22.736 -5.49836 
204 2 87.6749 25.5594 -2.67492 
205 2 -5.49836 28.3828 -5.49836 
206 2 -2.67492 31.2063 -2.67492 
207 2 0.14851 28.3828 -5.49836 
208 2 2.97194 31.2063 -2.67492 
209 2 5.79538 28.3828 -5.49836 
210 2 8.61881 31.2063 -2.67492 
211 2 11.4422 28.3828 -5.49836 
212 2 14.2657 31.2063 -2.67492 
213 2 17.0891 28.3828 -5.49836 
214 2 19.9125 31.2063 -2.67492 
215 2 22.736 28.3828 -5.49836 
216 2 25.5594 31.2063 -2.67492 
217 2 28.3828 28.3828 -5.49836 
218 2 31.2063 31.2063 -2.67492 
219 2 34.0297 28.3828 -5.49836 
220 2 36.8531 31.2063 -2.67492 
221 2 39.6766 28.3828 -5.49836 
222 2 42.5 31.2063 -2.67492 
223 2 45.3234 28.3828 -5.49836 
224 2 48.1469 31.2063 -2.67492 
225 2 50.9703 28.3828 -5.49836 
226 2 53.7937 31.2063 -2.67492 
227 2 56.6172 28.3828 -5.49836 
228 2 59.4406 31.2063 -2.67492 
229 2 62.264 28.3828 -5.49836 
230 2 65.0875 31.2063 -2.67492 
231 2 67.9109 28.3828 -5.49836 
232 2 70.7343 31.2063 -2.67492 
233 2 73.5578 28.3828 -5.49836 
234 2 76.3812 31.2063 -2.67492 
235 2 79.2046 28.3828 -5.49836 
236 2 82.0281 31.2063 -2.67492 
237 2 84.8515 28.3828 -5.49836 
238 2 87.6749 31.2063 -2.67492 
239 2 -5.49836 34.0297 -5.49836 
240 2 -2.67492 36.8531 -2.67492 
241 2 0.14851 34.0297 -5.49836 
242 2 2.97194 36.8531 -2.67492 
243 2 5.79538 34.0297 -5.49836 
244 2 8.61881 36.8531 -2.67492 
245 2 11.4422 34.0297 -5.49836 
246 2 14.2657 36.8531 -2.67492 
247 2 17.0891 34.0297 -5.49836 
248 2 19.9125 36.8531 -2.67492 
249 2 22.736 34.0297 -5.49836 
250 2 25.5594 36.8531 -2.67492 
251 2 28.3828 34.0297 -5.49836 
252 2 31.2063 36.8531 -2.67492 
253 2 34.0297 34.0297 -5.49836 
254 2 36.8531 36.8531 -2.67492 
255 2 39.6766 34.0297 -5.49836 
256 2 42.5 36.8531 -2.67492 
257 2 45.3234 34.0297 -5.49836 
258 2 48.1469 36.8531 -2.67492 
259 2 50.9703 34.0297 -5.49836 
260 2 53.7937 36.8531 -2.67492 
261 2 56.6172 34.0297 -5.49836 
262 2 59.4406 36.8531 -2.67492 
263 2 62.264 34.0297 -5.49836 
264 2 65.0875 36.8531 -2.67492 
265 2 67.9109 34.0297 -5.49836 
266 2 70.7343 36.8531 -2.67492 
267 2 73.5578 34.0297 -5.49836 
268 2 76.3812 36.8531 -2.67492 
269 2 79.2046 34.0297 -5.49836 
270 2 82.0281 36.8531 -2.67492 
271 2 84.8515 34.0297 -5.49836 
272 2 87.6749 36.8531 -2.67492 
273 2 -5.49836 39.6766 -5.49836 
274 2 -2.67492 42.5 -2.67492 
275 2 0.14851 39.6766 -5.49836 
276 2 2.97194 42.5 -2.67492 
277 2 5.79538 39.6766 -5.49836 
278 2 8.61881 42.5 -2.67492 
279 2 11.4422 39.6766 -5.49836 
280 2 14.2657 42.5 -2.67492 
281 2 17.0891 39.6766 -5.49836 
282 2 19.9125 42.5 -2.67492 
283 2 22.736 39.6766 -5.49836 
284 2 25.5594 42.5 -2.67492 
285 2 28.3828 39.6766 -5.49836 
286 2 31.2063 42.5 -2.67492 
287 2 34.0297 39.6766 -5.49836 
288 2 36.8531 42.5 -2.67492 
289 2 39.6766 39.6766 -5.49836 
290 2 42.5 42.5 -2.67492 
291 2 45.3234 39.6766 -5.49836 
292 2 48.1469 42.5 -2.67492 
293 2 50.9703 39.6766 -5.49836 
294 2 53.7937 42.5 -2.67492 
295 2 56.6172 39.6766 -5.49836 
296 2 59.4406 42.5 -2.67492 
297 2 62.264 39.6766 -5.49836 
298 2 65.0875 42.5 -2.67492 
299 2 67.9109 39.6766 -5.49836 
300 2 70.7343 42.5 -2.67492 
301 2 73.5578 39.6766 -5.49836 
302 2 76.3812 42.5 -2.67492 
303 2 79.2046 39.6766 -5.49836 
304 2 82.0281 42.5 -2.67492 
305 2 84.8515 39.6766 -5.49836 
306 2 87.6749 42.5 -2.67492 
307 2 -5.49836 45.3234 -5.49836 
308 2 -2.67492 48.1469 -2.67492 
309 2 0.14851 45.3234 -5.49836 
310 2 2.97194 48.1469 -2.67492 
311 2 5.79538 45.3234 -5.49836 
312 2 8.61881 48.1469 -2.67492 
313 2 11.4422 45.3234 -5.49836 
314 2 14.2657 48.1469 -2.67492 
315 2 17.0891 45.3234 -5.49836 
316 2 19.9125 48.1469 -2.67492 
317 2 22.736 45.3234 -5.49836 
318 2 25.5594 48.1469 -2.67492 
319 2 28.3828 45.3234 -5.49836 
320 2 31.2063 48.1469 -2.67492 
321 2 34.0297 45.3234 -5.49836 
322 2 36.8531 48.1469 -2.67492 
323 2 39.6766 45.3234 -5.49836 
324 2 42.5 48.1469 -2.67492 
325 2 45.3234 45.3234 -5.49836 
326 2 48.1469 48.1469 -2.67492 
327 2 50.9703 45.3234 -5.49836 
328 2 53.7937 48.1469 -2.67492 
329 2 56.6172 45.3234 -5.49836 
330 2 59.4406 48.1469 -2.67492 
331 2 62.264 45.3234 -5.49836 
332 2 65.0875 48.1469 -2.67492 
333 2 67.9109 45.3234 -5.49836 
334 2 70.7343 48.1469 -2.67492 
335 2 73.5578 45.3234 -5.49836 
336 2 76.3812 48.1469 -2.67492 
337 2 79.2046 45.3234 -5.49836 
338 2 82.0281 48.1469 -2.67492 
339 2 84.8515 45.3234 -5.49836 
340 2 87.6749 48.1469 -2.67492 
341 2 -5.49836 50.9703 -5.49836 
342 2 -2.67492 53.7937 -2.67492 
343 2 0.14851 50.9703 -5.49836 
344 2 2.97194 53.7937 -2.67492 
345 2 5.79538 50.9703 -5.49836 
346 2 8.61881 53.7937 -2.67492 
347 2 11.4422 50.9703 -5.49836 
348 2 14.2657 53.7937 -2.67492 
349 2 17.0891 50.9703 -5.49836 
350 2 19.9125 53.7937 -2.67492 
351 2 22.736 50.9703 -5.49836 
352 2 25.5594 53.7937 -2.67492 
353 2 28.3828 50.9703 -5.49836 
354 2 31.2063 53.7937 -2.67492 
355 2 34.0297 50.9703 -5.49836 
356 2 36.8531 53.7937 -2.67492 
357 2 39.6766 50.9703 -5.49836 
358 2 42.5 53.7937 -2.67492 
359 2 45.3234 50.9703 -5.49836 
360 2 48.1469 53.7937 -2.67492 
361 2 50.9703 50.9703 -5.49836 
362 2 53.7937 53.7937 -2.67492 
363 2 56.6172 50.9703 -5.49836 
364 2 59.4406 53.7937 -2.67492 
365 2 62.264 50.9703 -5.49836 
366 2 65.0875 53.7937 -2.67492 
367 2 67.9109 50.9703 -5.49836 
368 2 70.7343 53.7937 -2.67492 
369 2 73.5578 50.9703 -5.49836 
370 2 76.3812 53.7937 -2.67492 
371 2 79.2046 50.9703 -5.49836 
372 2 82.0281 53.7937 -2.67492 
373 2 84.8515 50.9703 -5.49836 
374 2 87.6749 53.7937 -2.67492 
375 2 -5.49836 56.6172 -5.49836 
376 2 -2.67492 59.4406 -2.67492 
377 2 0.14851 56.6172 -5.49836 
378 2 2.97194 59.4406 -2.67492 
379 2 5.79538 56.6172 -5.49836 
380 2 8.61881 59.4406 -2.67492 
381 2 11.4422 56.6172 -5.49836 
382 2 14.2657 59.4406 -2.67492 
383 2 17.0891 56.6172 -5.49836 
384 2 19.9125 59.4406 -2.67492 
385 2 22.736 56.6172 -5.49836 
386 2 25.5594 59.4406 -2.67492 
387 2 28.3828 56.6172 -5.49836 
388 2 31.2063 59.4406 -2.67492 
389 2 34.0297 56.6172 -5.49836 
390 2 36.8531 59.4406 -2.67492 
391 2 39.6766 56.6172 -5.49836 
392 2 42.5 59.4406 -2.67492 
393 2 45.3234 56.6172 -5.49836 
394 2 48.1469 59.4406 -2.67492 
395 2 50.9703 56.6172 -5.49836 
396 2 53.7937 59.4406 -2.67492 
397 2 56.6172 56.6172 -5.49836 
398 2 59.4406 59.4406 -2.67492 
399 2 62.264 56.6172 -5.49836 
400 2 65.0875 59.4406 -2.67492 
401 2 67.9109 56.6172 -5.49836 
402 2 70.7343 59.4406 -2.67492 
403 2 73.5578 56.6172 -5.49836 
404 2 76.3812 59.4406 -2.67492 
405 2 79.2046 56.6172 -5.49836 
406 2 82.0281 59.4406 -2.67492 
407 2 84.8515 56.6172 -5.49836 
408 2 87.6749 59.4406 -2.67492 
409 2 -5.49836 62.264 -5.49836 
410 2 -2.67492 65.0875 -2.67492 
411 2 0.14851 62.264 -5.49836 
412 2 2.97194 65.0875 -2.67492 
413 2 5.79538 62.264 -5.49836 
414 2 8.61881 65.0875 -2.67492 
415 2 11.4422 62.264 -5.49836 
416 2 14.2657 65.0875 -2.67492 
417 2 17.0891 62.264 -5.49836 
418 2 19.9125 65.0875 -2.67492 
419 2 22.736 62.264 -5.49836 
420 2 25.5594 65.0875 -2.67492 
421 2 28.3828 62.264 -5.49836 
422 2 31.2063 65.0875 -2.67492 
423 2 34.0297 62.264 -5.49836 
424 2 36.8531 65.0875 -2.67492 
425 2 39.6766 62.264 -5.49836 
426 2 42.5 65.0875 -2.67492 
427 2 45.3234 62.264 -5.49836 
428 2 48.1469 65.0875 -2.67492 
429 2 50.9703 62.264 -5.49836 
430 2 53.7937 65.0875 -2.67492 
431 2 56.6172 62.264 -5.49836 
432 2 59.4406 65.0875 -2.67492 
433 2 62.264 62.264 -5.49836 
434 2 65.0875 65.0875 -2.67492 
435 2 67.9109 62.264 -5.49836 
436 2 70.7343 65.0875 -2.67492 
437 2 73.5578 62.264 -5.49836 
438 2 76.3812 65.0875 -2.67492 
439 2 79.2046 62.264 -5.49836 
440 2 82.0281 65.0875 -2.67492 
441 2 84.8515 62.264 -5.49836 
442 2 87.6749 65.0875 -2.67492 
443 2 -5.49836 67.9109 -5.49836 
444 2 -2.67492 70.7343 -2.67492 
445 2 0.14851 67.9109 -5.49836 
446 2 2.97194 70.7343 -2.67492 
447 2 5.79538 67.9109 -5.49836 
448 2 8.61881 70.7343 -2.67492 
449 2 11.4422 67.9109 -5.49836 
450 2 14.2657 70.7343 -2.67492 
451 2 17.0891 67.9109 -5.49836 
452 2 19.9125 70.7343 -2.67492 
453 2 22.736 67.9109 -5.49836 
454 2 25.5594 70.7343 -2.67492 
455 2 28.3828 67.9109 -5.49836 
456 2 31.2063 70.7343 -2.67492 
457 2 34.0297 67.9109 -5.49836 
458 2 36.8531 70.7343 -2.67492 
459 2 39.6766 67.9109 -5.49836 
460 2 42.5 70.7343 -2.67492 
461 2 45.3234 67.9109 -5.49836 
462 2 48.1469 70.7343 -2.67492 
463 2 50.9703 67.9109 -5.49836 
464 2 53.7937 70.7343 -2.67492 
465 2 56.6172 67.9109 -5.49836 
466 2 59.4406 70.7343 -2.67492 
467 2 62.264 67.9109 -5.49836 
468 2 65.0875 70.7343 -2.67492 
469 2 67.9109 67.9109 -5.49836 
470 2 70.7343 70.7343 -2.67492 
471 2 73.5578 67.9109 -5.49836 
472 2 76.3812 70.7343 -2.67492 
473 2 79.2046 67.9109 -5.49836 
474 2 82.0281 70.7343 -2.67492 
475 2 84.8515 67.9109 -5.49836 
476 2 87.6749 70.7343 -2.67492 
477 2 -5.49836 73.5578 -5.49836 
478 2 -2.67492 76.3812 -2.67492 
479 2 0.14851 73.5578 -5.49836 
480 2 2.97194 76.3812 -2.67492 
481 2 5.79538 73.5578 -5.49836 
482 2 8.61881 76.3812 -2.67492 
483 2 11.4422 73.5578 -5.49836 
484 2 14.2657 76.3812 -2.67492 
485 2 17.0891 73.5578 -5.49836 
486 2 19.9125 76.3812 -2.67492 
487 2 22.736 73.5578 -5.49836 
488 2 25.5594 76.3812 -2.67492 
489 2 28.3828 73.5578 -5.49836 
490 2 31.2063 76.3812 -2.67492 
491 2 34.0297 73.5578 -5.49836 
492 2 36.8531 76.3812 -2.67492 
493 2 39.6766 73.5578 -5.49836 
494 2 42.5 76.3812 -2.67492 
495 2 45.3234 73.5578 -5.49836 
496 2 48.1469 76.3812 -2.67492 
497 2 50.9703 73.5578 -5.49836 
498 2 53.7937 76.3812 -2.67492 
499 2 56.6172 73.5578 -5.49836 
500 2 59.4406 76.3812 -2.67492 
501 2 62.264 73.5578 -5.49836 
502 2 65.0875 76.3812 -2.67492 
503 2 67.9109 73.5578 -5.49836 
504 2 70.7343 76.3812 -2.67492 
505 2 73.5578 73.5578 -5.49836 
506 2 76.3812 76.3812 -2.67492 
507 2 79.2046 73.5578 -5.49836 
508 2 82.0281 76.3812 -2.67492 
509 2 84.8515 73.5578 -5.49836 
510 2 87.6749 76.3812 -2.67492 
511 2 -5.49836 79.2046 -5.49836 
512 2 -2.67492 82.0281 -2.67492 
513 2 0.14851 79.2046 -5.49836 
514 2 2.97194 82.0281 -2.67492 
515 2 5.79538 79.2046 -5.49836 
516 2 8.61881 82.0281 -2.67492 
517 2 11.4422 79.2046 -5.49836 
518 2 14.2657 82.0281 -2.67492 
519 2 17.0891 79.2046 -5.49836 
520 2 19.9125 82.0281 -2.67492 
521 2 22.736 79.2046 -5.49836 
522 2 25.5594 82.0281 -2.67492 
523 2 28.3828 79.2046 -5.49836 
524 2 31.2063 82.0281 -2.67492 
525 2 34.0297 79.2046 -5.49836 
526 2 36.8531 82.0281 -2.67492 
527 2 39.6766 79.2046 -5.49836 
528 2 42.5 82.0281 -2.67492 
529 2 45.3234 79.2046 -5.49836 
530 2 48.1469 82.0281 -2.67492 
531 2 50.9703 79.2046 -5.49836 
532 2 53.7937 82.0281 -2.67492 
533 2 56.6172 79.2046 -5.49836 
534 2 59.4406 82.0281 -2.67492 
535 2 62.264 79.2046 -5.49836 
536 2 65.0875 82.0281 -2.67492 
537 2 67.9109 79.2046 -5.49836 
538 2 70.7343 82.0281 -2.67492 
539 2 73.5578 79.2046 -5.49836 
540 2 76.3812 82.0281 -2.67492 
541 2 79.2046 79.2046 -5.49836 
542 2 82.0281 82.0281 -2.67492 
543 2 84.8515 79.2046 -5.49836 
544 2 87.6749 82.0281 -2.67492 
545 2 -5.49836 84.8515 -5.49836 
546 2 -2.67492 87.6749 -2.67492 
547 2 0.14851 84.8515 -5.49836 
548 2 2.97194 87.6749 -2.67492 
549 2 5.79538 84.8515 -5.49836 
550 2 8.61881 87.6749 -2.67492 
551 2 11.4422 84.8515 -5.49836 
552 2 14.2657 87.6749 -2.67492 
553 2 17.0891 84.8515 -5.49836 
554 2 19.9125 87.6749 -2.67492 
555 2 22.736 84.8515 -5.49836 
556 2 25.5594 87.6749 -2.67492 
557 2 28.3828 84.8515 -5.49836 
558 2 31.2063 87.6749 -2.67492 
559 2 34.0297 84.8515 -5.49836 
560 2 36.8531 87.6749 -2.67492 
561 2 39.6766 84.8515 -5.49836 
562 2 42.5 87.6749 -2.67492 
563 2 45.3234 84.8515 -5.49836 
564 2 48.1469 87.6749 -2.67492 
565 2 50.9703 84.8515 -5.49836 
566 2 53.7937 87.6749 -2.67492 
567 2 56.6172 84.8515 -5.49836 
568 2 59.4406 87.6749 -2.67492 
569 2 62.264 84.8515 -5.49836 
570 2 65.0875 87.6749 -2.67492 
571 2 67.9109 84.8515 -5.49836 
572 2 70.7343 87.6749 -2.67492 
573 2 73.5578 84.8515 -5.49836 
574 2 76.3812 87.6749 -2.67492 
575 2 79.2046 84.8515 -5.49836 
576 2 82.0281 87.6749 -2.67492 
577 2 84.8515 84.8515 -5.49836 
578 2 87.6749 87.6749 -2.67492 
579 2 -5.49836 -5.49836 0.14851 
580 2 -2.67492 -2.67492 2.97194 
581 2 0.14851 -5.49836 0.14851 
582 2 2.97194 -2.67492 2.97194 
583 2 5.79538 -5.49836 0.14851 
584 2 8.61881 -2.67492 2.97194 
585 2 11.4422 -5.49836 0.14851 
586 2 14.2657 -2.67492 2.97194 
587 2 17.0891 -5.49836 0.14851 
588 2 19.9125 -2.67492 2.97194 
589 2 22.736 -5.49836 0.14851 
590 2 25.5594 -2.67492 2.97194 
591 2 28.3828 -5.49836 0.14851 
592 2 31.2063 -2.67492 2.97194 
593 2 34.0297 -5.49836 0.14851 
594 2 36.8531 -2.67492 2.97194 
595 2 39.6766 -5.49836 0.14851 
596 2 42.5 -2.67492 2.97194 
597 2 45.3234 -5.49836 0.14851 
598 2 48.1469 -2.67492 2.97194 
599 2 50.9703 -5.49836 0.14851 
600 2 53.7937 -2.67492 2.97194 
601 2 56.6172 -5.49836 0.14851 
602 2 59.4406 -2.67492 2.97194 
603 2 62.264 -5.49836 0.14851 
604 2 65.0875 -2.67492 2.97194 
605 2 67.9109 -5.49836 0.14851 
606 2 70.7343 -2.67492 2.97194 
607 2 73.5578 -5.49836 0.14851 
608 2 76.3812 -2.67492 2.97194 
609 2 79.2046 -5.49836 0.14851 
610 2 82.0281 -2.67492 2.97194 
611 2 84.8515 -5.49836 0.14851 
612 2 87.6749 -2.67492 2.97194 
613 2 -5.49836 0.14851 0.14851 
614 2 -2.67492 2.97194 2.97194 
615 2 0.14851 0.14851 0.14851 
616 2 2.97194 2.97194 2.97194 
617 2 5.79538 0.14851 0.14851 
618 2 8.61881 2.97194 2.97194 
619 2 11.4422 0.14851 0.14851 
620 2 14.2657 2.97194 2.97194 
621 2 17.0891 0.14851 0.14851 
622 2 19.9125 2.97194 2.97194 
623 2 22.736 0.14851 0.14851 
624 2 25.5594 2.97194 2.97194 
625 2 28.3828 0.14851 0.14851 
626 2 31.2063 2.97194 2.97194 
627 2 34.0297 0.14851 0.14851 
628 2 36.8531 2.97194 2.97194 
629 2 39.6766 0.14851 0.14851 
630 2 42.5 2.97194 2.97194 
631 2 45.3234 0.14851 0.14851 
632 2 48.1469 2.97194 2.97194 
633 2 50.9703 0.14851 0.14851 
634 2 53.7937 2.97194 2.97194 
635 2 56.6172 0.14851 0.14851 
636 2 59.4406 2.97194 2.97194 
637 2 62.264 0.14851 0.14851 
638 2 65.0875 2.97194 2.97194 
639 2 67.9109 0.14851 0.14851 
640 2 70.7343 2.97194 2.97194 
641 2 73.5578 0.14851 0.14851 
642 2 76.3812 2.97194 2.97194 
643 2 79.2046 0.14851 0.14851 
644 2 82.0281 2.97194 2.97194 
645 2 84.8515 0.14851 0.14851 
646 2 87.6749 2.97194 2.97194 
647 2 -5.49836 5.79538 0.14851 
648 2 -2.67492 8.61881 2.97194 
649 2 0.14851 5.79538 0.14851 
650 2 2.97194 8.61881 2.97194 
651 2 5.79538 5.79538 0.14851 
652 2 8.61881 8.61881 2.97194 
653 2 11.4422 5.79538 0.14851 
654 2 14.2657 8.61881 2.97194 
655 2 17.0891 5.79538 0.14851 
656 2 19.9125 8.61881 2.97194 
657 2 22.736 5.79538 0.14851 
658 2 25.5594 8.61881 2.97194 
659 2 28.3828 5.79538 0.14851 
660 2 31.2063 8.61881 2.97194 
661 2 34.0297 5.79538 0.14851 
662 2 36.8531 8.61881 2.97194 
663 2 39.6766 5.79538 0.14851 
664 2 42.5 8.61881 2.97194 
665 2 45.3234 5.79538 0.14851 
666 2 48.1469 8.61881 2.97194 
667 2 50.9703 5.79538 0.14851 
668 2 53.7937 8.61881 2.97194 
669 2 56.6172 5.79538 0.14851 
670 2 59.4406 8.61881 2.97194 
671 2 62.264 5.79538 0.14851 
672 2 65.0875 8.61881 2.97194 
673 2 67.9109 5.79538 0.14851 
674 2 70.7343 8.61881 2.97194 
675 2 73.5578 5.79538 0.14851 
676 2 76.3812 8.61881 2.97194 
677 2 79.2046 5.79538 0.14851 
678 2 82.0281 8.61881 2.97194 
679 2 84.8515 5.79538 0.14851 
680 2 87.6749 8.61881 2.97194 
681 2 -5.49836 11.4422 0.14851 
682 2 -2.67492 14.2657 2.97194 
683 2 0.14851 11.4422 0.14851 
684 2 2.97194 14.2657 2.97194 
685 2 5.79538 11.4422 0.14851 
686 2 8.61881 14.2657 2.97194 
687 2 11.4422 11.4422 0.14851 
688 2 14.2657 14.2657 2.97194 
689 2 17.0891 11.4422 0.14851 
690 2 19.9125 14.2657 2.97194 
691 2 22.736 11.4422 0.14851 
692 2 25.5594 14.2657 2.97194 
693 2 28.3828 11.4422 0.14851 
694 2 31.2063 14.2657 2.97194 
695 2 34.0297 11.4422 0.14851 
696 2 36.8531 14.2657 2.97194 
697 2 39.6766 11.4422 0.14851 
698 2 42.5 14.2657 2.97194 
699 2 45.3234 11.4422 0.14851 
700 2 48.1469 14.2657 2.97194 
701 2 50.9703 11.4422 0.14851 
702 2 53.7937 14.2657 2.97194 
703 2 56.6172 11.4422 0.14851 
704 2 59.4406 14.2657 2.97194 
705 2 62.264 11.4422 0.14851 
706 2 65.0875 14.2657 2.97194 
707 2 67.9109 11.4422 0.14851 
708 2 70.7343 14.2657 2.97194 
709 2 73.5578 11.4422 0.14851 
710 2 76.3812 14.2657 2.97194 
711 2 79.2046 11.4422 0.14851 
712 2 82.0281 14.2657 2.97194 
713 2 84.8515 11.4422 0.14851 
714 2 87.6749 14.2657 2.97194 
715 2 -5.49836 17.0891 0.14851 
716 2 -2.67492 19.9125 2.97194 
717 2 0.14851 17.0891 0.14851 
718 2 2.97194 19.9125 2.97194 
719 2 5.79538 17.0891 0.14851 
720 2 8.61881 19.9125 2.97194 
721 2 11.4422 17.0891 0.14851 
722 2 14.2657 19.9125 2.97194 
723 2 17.0891 17.0891 0.14851 
724 2 19.9125 19.9125 2.97194 
725 2 22.736 17.0891 0.14851 
726 2 25.5594 19.9125 2.97194 
727 2 28.3828 17.0891 0.14851 
728 2 31.2063 19.9125 2.97194 
729 2 34.0297 17.0891 0.14851 
730 2 36.8531 19.9125 2.97194 
731 2 39.6766 17.0891 0.14851 
732 2 42.5 19.9125 2.97194 
733 2 45.3234 17.0891 0.14851 
734 2 48.1469 19.9125 2.97194 
735 2 50.9703 17.0891 0.14851 
736 2 53.7937 19.9125 2.97194 
737 2 56.6172 17.0891 0.14851 
738 2 59.4406 19.9125 2.97194 
739 2 62.264 17.0891 0.14851 
740 2 65.0875 19.9125 2.97194 
741 2 67.9109 17.0891 0.14851 
742 2 70.7343 19.9125 2.97194 
743 2 73.5578 17.0891 0.14851 
744 2 76.3812 19.9125 2.97194 
745 2 79.2046 17.0891 0.14851 
746 2 82.0281 19.9125 2.97194 
747 2 84.8515 17.0891 0.14851 
748 2 87.6749 19.9125 2.97194 
749 2 -5.49836 22.736 0.14851 
750 2 -2.67492 25.5594 2.97194 
751 2 0.14851 22.736 0.14851 
752 2 2.97194 25.5594 2.97194 
753 2 5.79538 22.736 0.14851 
754 2 8.61881 25.5594 2.97194 
755 2 11.4422 22.736 0.14851 
756 2 14.2657 25.5594 2.97194 
757 2 17.0891 22.736 0.14851 
758 2 19.9125 25.5594 2.97194 
759 2 22.736 22.736 0.14851 
760 2 25.5594 25.5594 2.97194 
761 2 28.3828 22.736 0.14851 
762 2 31.2063 25.5594 2.97194 
763 2 34.0297 22.736 0.14851 
764 2 36.8531 25.5594 2.97194 
765 2 39.6766 22.736 0.14851 
766 2 42.5 25.5594 2.97194 
767 2 45.3234 22.736 0.14851 
768 2 48.1469 25.5594 2.97194 
769 2 50.9703 22.736 0.14851 
770 2 53.7937 25.5594 2.97194 
771 2 56.6172 22.736 0.14851 
772 2 59.4406 25.5594 2.97194 
773 2 62.264 22.736 0.14851 
774 2 65.0875 25.5594 2.97194 
775 2 67.9109 22.736 0.14851 
776 2 70.7343 25.5594 2.97194 
777 2 73.5578 22.736 0.14851 
778 2 76.3812 25.5594 2.97194 
779 2 79.2046 22.736 0.14851 
780 2 82.0281 25.5594 2.97194 
781 2 84.8515 22.736 0.14851 
782 2 87.6749 25.5594 2.97194 
783 2 -5.49836 28.3828 0.14851 
784 2 -2.67492 31.2063 2.97194 
785 2 0.14851 28.3828 0.14851 
786 2 2.97194 31.2063 2.97194 
787 2 5.79538 28.3828 0.14851 
788 2 8.61881 31.2063 2.97194 
789 2 11.4422 28.3828 0.14851 
790 2 14.2657 31.2063 2.97194 
791 2 17.0891 28.3828 0.14851 
792 2 19.9125 31.2063 2.97194 
793 2 22.736 28.3828 0.14851 
794 2 25.5594 31.2063 2.97194 
795 2 28.3828 28.3828 0.14851 
796 2 31.2063 31.2063 2.97194 
797 2 34.0297 28.3828 0.14851 
798 2 36.8531 31.2063 2.97194 
799 2 39.6766 28.3828 0.14851 
800 2 42.5 31.2063 2.97194 
801 2 45.3234 28.3828 0.14851 
802 2 48.1469 31.2063 2.97194 
803 2 50.9703 28.3828 0.14851 
804 2 53.7937 31.2063 2.97194 
805 2 56.6172 28.3828 0.14851 
806 2 59.4406 31.2063 2.97194 
807 2 62.264 28.3828 0.14851 
808 2 65.0875 31.2063 2.97194 
809 2 67.9109 28.3828 0.14851 
810 2 70.7343 31.2063 2.97194 
811 2 73.5578 28.3828 0.14851 
812 2 76.3812 31.2063 2.97194 
813 2 79.2046 28.3828 0.14851 
814 2 82.0281 31.2063 2.97194 
815 2 84.8515 28.3828 0.14851 
816 2 87.6749 31.2063 2.97194 
817 2 -5.49836 34.0297 0.14851 
818 2 -2.67492 36.8531 2.97194 
819 2 0.14851 34.0297 0.14851 
820 2 2.97194 36.8531 2.97194 
821 2 5.79538 34.0297 0.14851 
822 2 8.61881 36.8531 2.97194 
823 2 11.4422 34.0297 0.14851 
824 2 14.2657 36.8531 2.97194 
825 2 17.0891 34.0297 0.14851 
826 2 19.9125 36.8531 2.97194 
827 2 22.736 34.0297 0.14851 
828 2 25.5594 36.8531 2.97194 
829 2 28.3828 34.0297 0.14851 
830 2 31.2063 36.8531 2.97194 
831 2 34.0297 34.0297 0.14851 
832 2 36.8531 36.8531 2.97194 
833 2 39.6766 34.0297 0.14851 
834 2 42.5 36.8531 2.97194 
835 2 45.3234 34.0297 0.14851 
836 2 48.1469 36.8531 2.97194 
837 2 50.9703 34.0297 0.14851 
838 2 53.7937 36.8531 2.97194 
839 2 56.6172 34.0297 0.14851 
840 2 59.4406 36.8531 2.97194 
841 2 62.264 34.0297 0.14851 
842 2 65.0875 36.8531 2.97194 
843 2 67.9109 34.0297 0.14851 
844 2 70.7343 36.8531 2.97194 
845 2 73.5578 34.0297 0.14851 
846 2 76.3812 36.8531 2.97194 
847 2 79.2046 34.0297 0.14851 
848 2 82.0281 36.8531 2.97194 
849 2 84.8515 34.0297 0.14851 
850 2 87.6749 36.8531 2.97194 
851 2 -5.49836 39.6766 0.14851 
852 2 -2.67492 42.5 2.97194 
853 2 0.14851 39.6766 0.14851 
854 2 2.97194 42.5 2.97194 
855 2 5.79538 39.6766 0.14851 
856 2 8.61881 42.5 2.97194 
857 2 11.4422 39.6766 0.14851 
858 2 14.2657 42.5 2.97194 
859 2 17.0891 39.6766 0.14851 
860 2 19.9125 42.5 2.97194 
861 2 22.736 39.6766 0.14851 
862 2 25.5594 42.5 2.97194 
863 2 28.3828 39.6766 0.14851 
864 2 31.2063 42.5 2.97194 
865 2 34.0297 39.6766 0.14851 
866 2 36.8531 42.5 2.97194 
867 2 39.6766 39.6766 0.14851 
868 2 42.5 42.5 2.97194 
869 2 45.3234 39.6766 0.14851 
870 2 48.1469 42.5 2.97194 
871 2 50.9703 39.6766 0.14851 
872 2 53.7937 42.5 2.97194 
873 2 56.6172 39.6766 0.14851 
874 2 59.4406 42.5 2.97194 
875 2 62.264 39.6766 0.14851 
876 2 65.0875 42.5 2.97194 
877 2 67.9109 39.6766 0.14851 
878 2 70.7343 42.5 2.97194 
879 2 73.5578 39.6766 0.14851 
880 2 76.3812 42.5 2.97194 
881 2 79.2046 39.6766 0.14851 
882 2 82.0281 42.5 2.97194 
883 2 84.8515 39.6766 0.14851 
884 2 87.6749 42.5 2.97194 
885 2 -5.49836 45.3234 0.14851 
886 2 -2.67492 48.1469 2.97194 
887 2 0.14851 45.3234 0.14851 
888 2 2.97194 48.1469 2.97194 
889 2 5.79538 45.3234 0.14851 
890 2 8.61881 48.1469 2.97194 
891 2 11.4422 45.3234 0.14851 
892 2 14.2657 48.1469 2.97194 
893 2 17.0891 45.3234 0.14851 
894 2 19.9125 48.1469 2.97194 
895 2 22.736 45.3234 0.14851 
896 2 25.5594 48.1469 2.97194 
897 2 28.3828 45.3234 0.14851 
898 2 31.2063 48.1469 2.97194 
899 2 34.0297 45.3234 0.14851 
900 2 36.8531 48.1469 2.97194 
901 2 39.6766 45.3234 0.14851 
902 2 42.5 48.1469 2.97194 
903 2 45.3234 45.3234 0.14851 
904 2 48.1469 48.1469 2.97194 
905 2 50.9703 45.3234 0.14851 
906 2 53.7937 48.1469 2.97194 
907 2 56.6172 45.3234 0.14851 
908 2 59.4406 48.1469 2.97194 
909 2 62.264 45.3234 0.14851 
910 2 65.0875 48.1469 2.97194 
911 2 67.9109 45.3234 0.14851 
912 2 70.7343 48.1469 2.97194 
913 2 73.5578 45.3234 0.14851 
914 2 76.3812 48.1469 2.97194 
915 2 79.2046 45.3234 0.14851 
916 2 82.0281 48.1469 2.97194 
917 2 84.8515 45.3234 0.14851 
918 2 87.6749 48.1469 2.97194 
919 2 -5.49836 50.9703 0.14851 
920 2 -2.67492 53.7937 2.97194 
921 2 0.14851 50.9703 0.14851 
922 2 2.97194 53.7937 2.97194 
923 2 5.79538 50.9703 0.14851 
924 2 8.61881 53.7937 2.97194 
925 2 11.4422 50.9703 0.14851 
926 2 14.2657 53.7937 2.97194 
927 2 17.0891 50.9703 0.14851 
928 2 19.9125 53.7937 2.97194 
929 2 22.736 50.9703 0.14851 
930 2 25.5594 53.7937 2.97194 
931 2 28.3828 50.9703 0.14851 
932 2 31.2063 53.7937 2.97194 
933 2 34.0297 50.9703 0.14851 
934 2 36.8531 53.7937 2.97194 
935 2 39.6766 50.9703 0.14851 
936 2 42.5 53.7937 2.97194 
937 2 45.3234 50.9703 0.14851 
938 2 48.1469 53.7937 2.97194 
939 2 50.9703 50.9703 0.14851 
940 2 53.7937 53.7937 2.97194 
941 2 56.6172 50.9703 0.14851 
942 2 59.4406 53.7937 2.97194 
943 2 62.264 50.9703 0.14851 
944 2 65.0875 53.7937 2.97194 
945 2 67.9109 50.9703 0.14851 
946 2 70.7343 53.7937 2.97194 
947 2 73.5578 50.9703 0.14851 
948 2 76.3812 53.7937 2.97194 
949 2 79.2046 50.9703 0.14851 
950 2 82.0281 53.7937 2.97194 