ITEM: TIMESTEP
104
ITEM: NUMBER OF ATOMS
19652
ITEM: BOX BOUNDS pp pp pp
2.1388577149266279e+01 6.3611422850733433e+01
3.7046102324135632e+01 1.1017821631921925e+02
3.4927400226569482e+01 1.0387701853114382e+02
ITEM: ATOMS id type xu yu zu 
1 2 21.3886 37.0461 34.9274 
2 2 22.6304 39.197 34.9274 
3 2 22.6304 40.631 36.9553 
4 2 21.3886 38.4801 36.9553 
5 2 23.8723 37.0461 34.9274 
6 2 25.1141 39.197 34.9274 
7 2 25.1141 40.631 36.9553 
8 2 23.8723 38.4801 36.9553 
9 2 26.356 37.0461 34.9274 
10 2 27.5978 39.197 34.9274 
11 2 27.5978 40.631 36.9553 
12 2 26.356 38.4801 36.9553 
13 2 28.8397 37.0461 34.9274 
14 2 30.0815 39.197 34.9274 
15 2 30.0815 40.631 36.9553 
16 2 28.8397 38.4801 36.9553 
17 2 31.3234 37.0461 34.9274 
18 2 32.5652 39.197 34.9274 
19 2 32.5652 40.631 36.9553 
20 2 31.3234 38.4801 36.9553 
21 2 33.8071 37.0461 34.9274 
22 2 35.0489 39.197 34.9274 
23 2 35.0489 40.631 36.9553 
24 2 33.8071 38.4801 36.9553 
25 2 36.2908 37.0461 34.9274 
26 2 37.5326 39.197 34.9274 
27 2 37.5326 40.631 36.9553 
28 2 36.2908 38.4801 36.9553 
29 2 38.7745 37.0461 34.9274 
30 2 40.0163 39.197 34.9274 
31 2 40.0163 40.631 36.9553 
32 2 38.7745 38.4801 36.9553 
33 2 41.2582 37.0461 34.9274 
34 2 42.5 39.197 34.9274 
35 2 42.5 40.631 36.9553 
36 2 41.2582 38.4801 36.9553 
37 2 43.7418 37.0461 34.9274 
38 2 44.9837 39.197 34.9274 
39 2 44.9837 40.631 36.9553 
40 2 43.7418 38.4801 36.9553 
41 2 46.2255 37.0461 34.9274 
42 2 47.4674 39.197 34.9274 
43 2 47.4674 40.631 36.9553 
44 2 46.2255 38.4801 36.9553 
45 2 48.7092 37.0461 34.9274 
46 2 49.9511 39.197 34.9274 
47 2 49.9511 40.631 36.9553 
48 2 48.7092 38.4801 36.9553 
49 2 51.1929 37.0461 34.9274 
50 2 52.4348 39.197 34.9274 
51 2 52.4348 40.631 36.9553 
52 2 51.1929 38.4801 36.9553 
53 2 53.6766 37.0461 34.9274 
54 2 54.9185 39.197 34.9274 
55 2 54.9185 40.631 36.9553 
56 2 53.6766 38.4801 36.9553 
57 2 56.1603 37.0461 34.9274 
58 2 57.4022 39.197 34.9274 
59 2 57.4022 40.631 36.9553 
60 2 56.1603 38.4801 36.9553 
61 2 58.644 37.0461 34.9274 
62 2 59.8859 39.197 34.9274 
63 2 59.8859 40.631 36.9553 
64 2 58.644 38.4801 36.9553 
65 2 61.1277 37.0461 34.9274 
66 2 62.3696 39.197 34.9274 
67 2 62.3696 40.631 36.9553 
68 2 61.1277 38.4801 36.9553 
69 2 21.3886 41.348 34.9274 
70 2 22.6304 43.4989 34.9274 
71 2 22.6304 44.9329 36.9553 
72 2 21.3886 42.782 36.9553 
73 2 23.8723 41.348 34.9274 
74 2 25.1141 43.4989 34.9274 
75 2 25.1141 44.9329 36.9553 
76 2 23.8723 42.782 36.9553 
77 2 26.356 41.348 34.9274 
78 2 27.5978 43.4989 34.9274 
79 2 27.5978 44.9329 36.9553 
80 2 26.356 42.782 36.9553 
81 2 28.8397 41.348 34.9274 
82 2 30.0815 43.4989 34.9274 
83 2 30.0815 44.9329 36.9553 
84 2 28.8397 42.782 36.9553 
85 2 31.3234 41.348 34.9274 
86 2 32.5652 43.4989 34.9274 
87 2 32.5652 44.9329 36.9553 
88 2 31.3234 42.782 36.9553 
89 2 33.8071 41.348 34.9274 
90 2 35.0489 43.4989 34.9274 
91 2 35.0489 44.9329 36.9553 
92 2 33.8071 42.782 36.9553 
93 2 36.2908 41.348 34.9274 
94 2 37.5326 43.4989 34.9274 
95 2 37.5326 44.9329 36.9553 
96 2 36.2908 42.782 36.9553 
97 2 38.7745 41.348 34.9274 
98 2 40.0163 43.4989 34.9274 
99 2 40.0163 44.9329 36.9553 
100 2 38.7745 42.782 36.9553 
101 2 41.2582 41.348 34.9274 
102 2 42.5 43.4989 34.9274 
103 2 42.5 44.9329 36.9553 
104 2 41.2582 42.782 36.9553 
105 2 43.7418 41.348 34.9274 
106 2 44.9837 43.4989 34.9274 
107 2 44.9837 44.9329 36.9553 
108 2 43.7418 42.782 36.9553 
109 2 46.2255 41.348 34.9274 
110 2 47.4674 43.4989 34.9274 
111 2 47.4674 44.9329 36.9553 
112 2 46.2255 42.782 36.9553 
113 2 48.7092 41.348 34.9274 
114 2 49.9511 43.4989 34.9274 
115 2 49.9511 44.9329 36.9553 
116 2 48.7092 42.782 36.9553 
117 2 51.1929 41.348 34.9274 
118 2 52.4348 43.4989 34.9274 
119 2 52.4348 44.9329 36.9553 
120 2 51.1929 42.782 36.9553 
121 2 53.6766 41.348 34.9274 
122 2 54.9185 43.4989 34.9274 
123 2 54.9185 44.9329 36.9553 
124 2 53.6766 42.782 36.9553 
125 2 56.1603 41.348 34.9274 
126 2 57.4022 43.4989 34.9274 
127 2 57.4022 44.9329 36.9553 
128 2 56.1603 42.782 36.9553 
129 2 58.644 41.348 34.9274 
130 2 59.8859 43.4989 34.9274 
131 2 59.8859 44.9329 36.9553 
132 2 58.644 42.782 36.9553 
133 2 61.1277 41.348 34.9274 
134 2 62.3696 43.4989 34.9274 
135 2 62.3696 44.9329 36.9553 
136 2 61.1277 42.782 36.9553 
137 2 21.3886 45.6499 34.9274 
138 2 22.6304 47.8008 34.9274 
139 2 22.6304 49.2348 36.9553 
140 2 21.3886 47.0838 36.9553 
141 2 23.8723 45.6499 34.9274 
142 2 25.1141 47.8008 34.9274 
143 2 25.1141 49.2348 36.9553 
144 2 23.8723 47.0838 36.9553 
145 2 26.356 45.6499 34.9274 
146 2 27.5978 47.8008 34.9274 
147 2 27.5978 49.2348 36.9553 
148 2 26.356 47.0838 36.9553 
149 2 28.8397 45.6499 34.9274 
150 2 30.0815 47.8008 34.9274 
151 2 30.0815 49.2348 36.9553 
152 2 28.8397 47.0838 36.9553 
153 2 31.3234 45.6499 34.9274 
154 2 32.5652 47.8008 34.9274 
155 2 32.5652 49.2348 36.9553 
156 2 31.3234 47.0838 36.9553 
157 2 33.8071 45.6499 34.9274 
158 2 35.0489 47.8008 34.9274 
159 2 35.0489 49.2348 36.9553 
160 2 33.8071 47.0838 36.9553 
161 2 36.2908 45.6499 34.9274 
162 2 37.5326 47.8008 34.9274 
163 2 37.5326 49.2348 36.9553 
164 2 36.2908 47.0838 36.9553 
165 2 38.7745 45.6499 34.9274 
166 2 40.0163 47.8008 34.9274 
167 2 40.0163 49.2348 36.9553 
168 2 38.7745 47.0838 36.9553 
169 2 41.2582 45.6499 34.9274 
170 2 42.5 47.8008 34.9274 
171 2 42.5 49.2348 36.9553 
172 2 41.2582 47.0838 36.9553 
173 2 43.7418 45.6499 34.9274 
174 2 44.9837 47.8008 34.9274 
175 2 44.9837 49.2348 36.9553 
176 2 43.7418 47.0838 36.9553 
177 2 46.2255 45.6499 34.9274 
178 2 47.4674 47.8008 34.9274 
179 2 47.4674 49.2348 36.9553 
180 2 46.2255 47.0838 36.9553 
181 2 48.7092 45.6499 34.9274 
182 2 49.9511 47.8008 34.9274 
183 2 49.9511 49.2348 36.9553 
184 2 48.7092 47.0838 36.9553 
185 2 51.1929 45.6499 34.9274 
186 2 52.4348 47.8008 34.9274 
187 2 52.4348 49.2348 36.9553 
188 2 51.1929 47.0838 36.9553 
189 2 53.6766 45.6499 34.9274 
190 2 54.9185 47.8008 34.9274 
191 2 54.9185 49.2348 36.9553 
192 2 53.6766 47.0838 36.9553 
193 2 56.1603 45.6499 34.9274 
194 2 57.4022 47.8008 34.9274 
195 2 57.4022 49.2348 36.9553 
196 2 56.1603 47.0838 36.9553 
197 2 58.644 45.6499 34.9274 
198 2 59.8859 47.8008 34.9274 
199 2 59.8859 49.2348 36.9553 
200 2 58.644 47.0838 36.9553 
201 2 61.1277 45.6499 34.9274 
202 2 62.3696 47.8008 34.9274 
203 2 62.3696 49.2348 36.9553 
204 2 61.1277 47.0838 36.9553 
205 2 21.3886 49.9518 34.9274 
206 2 22.6304 52.1027 34.9274 
207 2 22.6304 53.5367 36.9553 
208 2 21.3886 51.3857 36.9553 
209 2 23.8723 49.9518 34.9274 
210 2 25.1141 52.1027 34.9274 
211 2 25.1141 53.5367 36.9553 
212 2 23.8723 51.3857 36.9553 
213 2 26.356 49.9518 34.9274 
214 2 27.5978 52.1027 34.9274 
215 2 27.5978 53.5367 36.9553 
216 2 26.356 51.3857 36.9553 
217 2 28.8397 49.9518 34.9274 
218 2 30.0815 52.1027 34.9274 
219 2 30.0815 53.5367 36.9553 
220 2 28.8397 51.3857 36.9553 
221 2 31.3234 49.9518 34.9274 
222 2 32.5652 52.1027 34.9274 
223 2 32.5652 53.5367 36.9553 
224 2 31.3234 51.3857 36.9553 
225 2 33.8071 49.9518 34.9274 
226 2 35.0489 52.1027 34.9274 
227 2 35.0489 53.5367 36.9553 
228 2 33.8071 51.3857 36.9553 
229 2 36.2908 49.9518 34.9274 
230 2 37.5326 52.1027 34.9274 
231 2 37.5326 53.5367 36.9553 
232 2 36.2908 51.3857 36.9553 
233 2 38.7745 49.9518 34.9274 
234 2 40.0163 52.1027 34.9274 
235 2 40.0163 53.5367 36.9553 
236 2 38.7745 51.3857 36.9553 
237 2 41.2582 49.9518 34.9274 
238 2 42.5 52.1027 34.9274 
239 2 42.5 53.5367 36.9553 
240 2 41.2582 51.3857 36.9553 
241 2 43.7418 49.9518 34.9274 
242 2 44.9837 52.1027 34.9274 
243 2 44.9837 53.5367 36.9553 
244 2 43.7418 51.3857 36.9553 
245 2 46.2255 49.9518 34.9274 
246 2 47.4674 52.1027 34.9274 
247 2 47.4674 53.5367 36.9553 
248 2 46.2255 51.3857 36.9553 
249 2 48.7092 49.9518 34.9274 
250 2 49.9511 52.1027 34.9274 
251 2 49.9511 53.5367 36.9553 
252 2 48.7092 51.3857 36.9553 
253 2 51.1929 49.9518 34.9274 
254 2 52.4348 52.1027 34.9274 
255 2 52.4348 53.5367 36.9553 
256 2 51.1929 51.3857 36.9553 
257 2 53.6766 49.9518 34.9274 
258 2 54.9185 52.1027 34.9274 
259 2 54.9185 53.5367 36.9553 
260 2 53.6766 51.3857 36.9553 
261 2 56.1603 49.9518 34.9274 
262 2 57.4022 52.1027 34.9274 
263 2 57.4022 53.5367 36.9553 
264 2 56.1603 51.3857 36.9553 
265 2 58.644 49.9518 34.9274 
266 2 59.8859 52.1027 34.9274 
267 2 59.8859 53.5367 36.9553 
268 2 58.644 51.3857 36.9553 
269 2 61.1277 49.9518 34.9274 
270 2 62.3696 52.1027 34.9274 
271 2 62.3696 53.5367 36.9553 
272 2 61.1277 51.3857 36.9553 
273 2 21.3886 54.2537 34.9274 
274 2 22.6304 56.4046 34.9274 
275 2 22.6304 57.8386 36.9553 
276 2 21.3886 55.6876 36.9553 
277 2 23.8723 54.2537 34.9274 
278 2 25.1141 56.4046 34.9274 
279 2 25.1141 57.8386 36.9553 
280 2 23.8723 55.6876 36.9553 
281 2 26.356 54.2537 34.9274 
282 2 27.5978 56.4046 34.9274 
283 2 27.5978 57.8386 36.9553 
284 2 26.356 55.6876 36.9553 
285 2 28.8397 54.2537 34.9274 
286 2 30.0815 56.4046 34.9274 
287 2 30.0815 57.8386 36.9553 
288 2 28.8397 55.6876 36.9553 
289 2 31.3234 54.2537 34.9274 
290 2 32.5652 56.4046 34.9274 
291 2 32.5652 57.8386 36.9553 
292 2 31.3234 55.6876 36.9553 
293 2 33.8071 54.2537 34.9274 
294 2 35.0489 56.4046 34.9274 
295 2 35.0489 57.8386 36.9553 
296 2 33.8071 55.6876 36.9553 
297 2 36.2908 54.2537 34.9274 
298 2 37.5326 56.4046 34.9274 
299 2 37.5326 57.8386 36.9553 
300 2 36.2908 55.6876 36.9553 
301 2 38.7745 54.2537 34.9274 
302 2 40.0163 56.4046 34.9274 
303 2 40.0163 57.8386 36.9553 
304 2 38.7745 55.6876 36.9553 
305 2 41.2582 54.2537 34.9274 
306 2 42.5 56.4046 34.9274 
307 2 42.5 57.8386 36.9553 
308 2 41.2582 55.6876 36.9553 
309 2 43.7418 54.2537 34.9274 
310 2 44.9837 56.4046 34.9274 
311 2 44.9837 57.8386 36.9553 
312 2 43.7418 55.6876 36.9553 
313 2 46.2255 54.2537 34.9274 
314 2 47.4674 56.4046 34.9274 
315 2 47.4674 57.8386 36.9553 
316 2 46.2255 55.6876 36.9553 
317 2 48.7092 54.2537 34.9274 
318 2 49.9511 56.4046 34.9274 
319 2 49.9511 57.8386 36.9553 
320 2 48.7092 55.6876 36.9553 
321 2 51.1929 54.2537 34.9274 
322 2 52.4348 56.4046 34.9274 
323 2 52.4348 57.8386 36.9553 
324 2 51.1929 55.6876 36.9553 
325 2 53.6766 54.2537 34.9274 
326 2 54.9185 56.4046 34.9274 
327 2 54.9185 57.8386 36.9553 
328 2 53.6766 55.6876 36.9553 
329 2 56.1603 54.2537 34.9274 
330 2 57.4022 56.4046 34.9274 
331 2 57.4022 57.8386 36.9553 
332 2 56.1603 55.6876 36.9553 
333 2 58.644 54.2537 34.9274 
334 2 59.8859 56.4046 34.9274 
335 2 59.8859 57.8386 36.9553 
336 2 58.644 55.6876 36.9553 
337 2 61.1277 54.2537 34.9274 
338 2 62.3696 56.4046 34.9274 
339 2 62.3696 57.8386 36.9553 
340 2 61.1277 55.6876 36.9553 
341 2 21.3886 58.5555 34.9274 
342 2 22.6304 60.7065 34.9274 
343 2 22.6304 62.1405 36.9553 
344 2 21.3886 59.9895 36.9553 
345 2 23.8723 58.5555 34.9274 
346 2 25.1141 60.7065 34.9274 
347 2 25.1141 62.1405 36.9553 
348 2 23.8723 59.9895 36.9553 
349 2 26.356 58.5555 34.9274 
350 2 27.5978 60.7065 34.9274 
351 2 27.5978 62.1405 36.9553 
352 2 26.356 59.9895 36.9553 
353 2 28.8397 58.5555 34.9274 
354 2 30.0815 60.7065 34.9274 
355 2 30.0815 62.1405 36.9553 
356 2 28.8397 59.9895 36.9553 
357 2 31.3234 58.5555 34.9274 
358 2 32.5652 60.7065 34.9274 
359 2 32.5652 62.1405 36.9553 
360 2 31.3234 59.9895 36.9553 
361 2 33.8071 58.5555 34.9274 
362 2 35.0489 60.7065 34.9274 
363 2 35.0489 62.1405 36.9553 
364 2 33.8071 59.9895 36.9553 
365 2 36.2908 58.5555 34.9274 
366 2 37.5326 60.7065 34.9274 
367 2 37.5326 62.1405 36.9553 
368 2 36.2908 59.9895 36.9553 
369 2 38.7745 58.5555 34.9274 
370 2 40.0163 60.7065 34.9274 
371 2 40.0163 62.1405 36.9553 
372 2 38.7745 59.9895 36.9553 
373 2 41.2582 58.5555 34.9274 
374 2 42.5 60.7065 34.9274 
375 2 42.5 62.1405 36.9553 
376 2 41.2582 59.9895 36.9553 
377 2 43.7418 58.5555 34.9274 
378 2 44.9837 60.7065 34.9274 
379 2 44.9837 62.1405 36.9553 
380 2 43.7418 59.9895 36.9553 
381 2 46.2255 58.5555 34.9274 
382 2 47.4674 60.7065 34.9274 
383 2 47.4674 62.1405 36.9553 
384 2 46.2255 59.9895 36.9553 
385 2 48.7092 58.5555 34.9274 
386 2 49.9511 60.7065 34.9274 
387 2 49.9511 62.1405 36.9553 
388 2 48.7092 59.9895 36.9553 
389 2 51.1929 58.5555 34.9274 
390 2 52.4348 60.7065 34.9274 
391 2 52.4348 62.1405 36.9553 
392 2 51.1929 59.9895 36.9553 
393 2 53.6766 58.5555 34.9274 
394 2 54.9185 60.7065 34.9274 
395 2 54.9185 62.1405 36.9553 
396 2 53.6766 59.9895 36.9553 
397 2 56.1603 58.5555 34.9274 
398 2 57.4022 60.7065 34.9274 
399 2 57.4022 62.1405 36.9553 
400 2 56.1603 59.9895 36.9553 
401 2 58.644 58.5555 34.9274 
402 2 59.8859 60.7065 34.9274 
403 2 59.8859 62.1405 36.9553 
404 2 58.644 59.9895 36.9553 
405 2 61.1277 58.5555 34.9274 
406 2 62.3696 60.7065 34.9274 
407 2 62.3696 62.1405 36.9553 
408 2 61.1277 59.9895 36.9553 
409 2 21.3886 62.8574 34.9274 
410 2 22.6304 65.0084 34.9274 
411 2 22.6304 66.4423 36.9553 
412 2 21.3886 64.2914 36.9553 
413 2 23.8723 62.8574 34.9274 
414 2 25.1141 65.0084 34.9274 
415 2 25.1141 66.4423 36.9553 
416 2 23.8723 64.2914 36.9553 
417 2 26.356 62.8574 34.9274 
418 2 27.5978 65.0084 34.9274 
419 2 27.5978 66.4423 36.9553 
420 2 26.356 64.2914 36.9553 
421 2 28.8397 62.8574 34.9274 
422 2 30.0815 65.0084 34.9274 
423 2 30.0815 66.4423 36.9553 
424 2 28.8397 64.2914 36.9553 
425 2 31.3234 62.8574 34.9274 
426 2 32.5652 65.0084 34.9274 
427 2 32.5652 66.4423 36.9553 
428 2 31.3234 64.2914 36.9553 
429 2 33.8071 62.8574 34.9274 
430 2 35.0489 65.0084 34.9274 
431 2 35.0489 66.4423 36.9553 
432 2 33.8071 64.2914 36.9553 
433 2 36.2908 62.8574 34.9274 
434 2 37.5326 65.0084 34.9274 
435 2 37.5326 66.4423 36.9553 
436 2 36.2908 64.2914 36.9553 
437 2 38.7745 62.8574 34.9274 
438 2 40.0163 65.0084 34.9274 
439 2 40.0163 66.4423 36.9553 
440 2 38.7745 64.2914 36.9553 
441 2 41.2582 62.8574 34.9274 
442 2 42.5 65.0084 34.9274 
443 2 42.5 66.4423 36.9553 
444 2 41.2582 64.2914 36.9553 
445 2 43.7418 62.8574 34.9274 
446 2 44.9837 65.0084 34.9274 
447 2 44.9837 66.4423 36.9553 
448 2 43.7418 64.2914 36.9553 
449 2 46.2255 62.8574 34.9274 
450 2 47.4674 65.0084 34.9274 
451 2 47.4674 66.4423 36.9553 
452 2 46.2255 64.2914 36.9553 
453 2 48.7092 62.8574 34.9274 
454 2 49.9511 65.0084 34.9274 
455 2 49.9511 66.4423 36.9553 
456 2 48.7092 64.2914 36.9553 
457 2 51.1929 62.8574 34.9274 
458 2 52.4348 65.0084 34.9274 
459 2 52.4348 66.4423 36.9553 
460 2 51.1929 64.2914 36.9553 
461 2 53.6766 62.8574 34.9274 
462 2 54.9185 65.0084 34.9274 
463 2 54.9185 66.4423 36.9553 
464 2 53.6766 64.2914 36.9553 
465 2 56.1603 62.8574 34.9274 
466 2 57.4022 65.0084 34.9274 
467 2 57.4022 66.4423 36.9553 
468 2 56.1603 64.2914 36.9553 
469 2 58.644 62.8574 34.9274 
470 2 59.8859 65.0084 34.9274 
471 2 59.8859 66.4423 36.9553 
472 2 58.644 64.2914 36.9553 
473 2 61.1277 62.8574 34.9274 
474 2 62.3696 65.0084 34.9274 
475 2 62.3696 66.4423 36.9553 
476 2 61.1277 64.2914 36.9553 
477 2 21.3886 67.1593 34.9274 
478 2 22.6304 69.3103 34.9274 
479 2 22.6304 70.7442 36.9553 
480 2 21.3886 68.5933 36.9553 
481 2 23.8723 67.1593 34.9274 
482 2 25.1141 69.3103 34.9274 
483 2 25.1141 70.7442 36.9553 
484 2 23.8723 68.5933 36.9553 
485 2 26.356 67.1593 34.9274 
486 2 27.5978 69.3103 34.9274 
487 2 27.5978 70.7442 36.9553 
488 2 26.356 68.5933 36.9553 
489 2 28.8397 67.1593 34.9274 
490 2 30.0815 69.3103 34.9274 
491 2 30.0815 70.7442 36.9553 
492 2 28.8397 68.5933 36.9553 
493 2 31.3234 67.1593 34.9274 
494 2 32.5652 69.3103 34.9274 
495 2 32.5652 70.7442 36.9553 
496 2 31.3234 68.5933 36.9553 
497 2 33.8071 67.1593 34.9274 
498 2 35.0489 69.3103 34.9274 
499 2 35.0489 70.7442 36.9553 
500 2 33.8071 68.5933 36.9553 
501 2 36.2908 67.1593 34.9274 
502 2 37.5326 69.3103 34.9274 
503 2 37.5326 70.7442 36.9553 
504 2 36.2908 68.5933 36.9553 
505 2 38.7745 67.1593 34.9274 
506 2 40.0163 69.3103 34.9274 
507 2 40.0163 70.7442 36.9553 
508 2 38.7745 68.5933 36.9553 
509 2 41.2582 67.1593 34.9274 
510 2 42.5 69.3103 34.9274 
511 2 42.5 70.7442 36.9553 
512 2 41.2582 68.5933 36.9553 
513 2 43.7418 67.1593 34.9274 
514 2 44.9837 69.3103 34.9274 
515 2 44.9837 70.7442 36.9553 
516 2 43.7418 68.5933 36.9553 
517 2 46.2255 67.1593 34.9274 
518 2 47.4674 69.3103 34.9274 
519 2 47.4674 70.7442 36.9553 
520 2 46.2255 68.5933 36.9553 
521 2 48.7092 67.1593 34.9274 
522 2 49.9511 69.3103 34.9274 
523 2 49.9511 70.7442 36.9553 
524 2 48.7092 68.5933 36.9553 
525 2 51.1929 67.1593 34.9274 
526 2 52.4348 69.3103 34.9274 
527 2 52.4348 70.7442 36.9553 
528 2 51.1929 68.5933 36.9553 
529 2 53.6766 67.1593 34.9274 
530 2 54.9185 69.3103 34.9274 
531 2 54.9185 70.7442 36.9553 
532 2 53.6766 68.5933 36.9553 
533 2 56.1603 67.1593 34.9274 
534 2 57.4022 69.3103 34.9274 
535 2 57.4022 70.7442 36.9553 
536 2 56.1603 68.5933 36.9553 
537 2 58.644 67.1593 34.9274 
538 2 59.8859 69.3103 34.9274 
539 2 59.8859 70.7442 36.9553 
540 2 58.644 68.5933 36.9553 
541 2 61.1277 67.1593 34.9274 
542 2 62.3696 69.3103 34.9274 
543 2 62.3696 70.7442 36.9553 
544 2 61.1277 68.5933 36.9553 
545 2 21.3886 71.4612 34.9274 
546 2 22.6304 73.6122 34.9274 
547 2 22.6304 75.0461 36.9553 
548 2 21.3886 72.8952 36.9553 
549 2 23.8723 71.4612 34.9274 
550 2 25.1141 73.6122 34.9274 
551 2 25.1141 75.0461 36.9553 
552 2 23.8723 72.8952 36.9553 
553 2 26.356 71.4612 34.9274 
554 2 27.5978 73.6122 34.9274 
555 2 27.5978 75.0461 36.9553 
556 2 26.356 72.8952 36.9553 
557 2 28.8397 71.4612 34.9274 
558 2 30.0815 73.6122 34.9274 
559 2 30.0815 75.0461 36.9553 
560 2 28.8397 72.8952 36.9553 
561 2 31.3234 71.4612 34.9274 
562 2 32.5652 73.6122 34.9274 
563 2 32.5652 75.0461 36.9553 
564 2 31.3234 72.8952 36.9553 
565 2 33.8071 71.4612 34.9274 
566 2 35.0489 73.6122 34.9274 
567 2 35.0489 75.0461 36.9553 
568 2 33.8071 72.8952 36.9553 
569 2 36.2908 71.4612 34.9274 
570 2 37.5326 73.6122 34.9274 
571 2 37.5326 75.0461 36.9553 
572 2 36.2908 72.8952 36.9553 
573 2 38.7745 71.4612 34.9274 
574 2 40.0163 73.6122 34.9274 
575 2 40.0163 75.0461 36.9553 
576 2 38.7745 72.8952 36.9553 
577 2 41.2582 71.4612 34.9274 
578 2 42.5 73.6122 34.9274 
579 2 42.5 75.0461 36.9553 
580 2 41.2582 72.8952 36.9553 
581 2 43.7418 71.4612 34.9274 
582 2 44.9837 73.6122 34.9274 
583 2 44.9837 75.0461 36.9553 
584 2 43.7418 72.8952 36.9553 
585 2 46.2255 71.4612 34.9274 
586 2 47.4674 73.6122 34.9274 
587 2 47.4674 75.0461 36.9553 
588 2 46.2255 72.8952 36.9553 
589 2 48.7092 71.4612 34.9274 
590 2 49.9511 73.6122 34.9274 
591 2 49.9511 75.0461 36.9553 
592 2 48.7092 72.8952 36.9553 
593 2 51.1929 71.4612 34.9274 
594 2 52.4348 73.6122 34.9274 
595 2 52.4348 75.0461 36.9553 
596 2 51.1929 72.8952 36.9553 
597 2 53.6766 71.4612 34.9274 
598 2 54.9185 73.6122 34.9274 
599 2 54.9185 75.0461 36.9553 
600 2 53.6766 72.8952 36.9553 
601 2 56.1603 71.4612 34.9274 
602 2 57.4022 73.6122 34.9274 
603 2 57.4022 75.0461 36.9553 
604 2 56.1603 72.8952 36.9553 
605 2 58.644 71.4612 34.9274 
606 2 59.8859 73.6122 34.9274 
607 2 59.8859 75.0461 36.9553 
608 2 58.644 72.8952 36.9553 
609 2 61.1277 71.4612 34.9274 
610 2 62.3696 73.6122 34.9274 
611 2 62.3696 75.0461 36.9553 
612 2 61.1277 72.8952 36.9553 
613 2 21.3886 75.7631 34.9274 
614 2 22.6304 77.914 34.9274 
615 2 22.6304 79.348 36.9553 
616 2 21.3886 77.1971 36.9553 
617 2 23.8723 75.7631 34.9274 
618 2 25.1141 77.914 34.9274 
619 2 25.1141 79.348 36.9553 
620 2 23.8723 77.1971 36.9553 
621 2 26.356 75.7631 34.9274 
622 2 27.5978 77.914 34.9274 
623 2 27.5978 79.348 36.9553 
624 2 26.356 77.1971 36.9553 
625 2 28.8397 75.7631 34.9274 
626 2 30.0815 77.914 34.9274 
627 2 30.0815 79.348 36.9553 
628 2 28.8397 77.1971 36.9553 
629 2 31.3234 75.7631 34.9274 
630 2 32.5652 77.914 34.9274 
631 2 32.5652 79.348 36.9553 
632 2 31.3234 77.1971 36.9553 
633 2 33.8071 75.7631 34.9274 
634 2 35.0489 77.914 34.9274 
635 2 35.0489 79.348 36.9553 
636 2 33.8071 77.1971 36.9553 
637 2 36.2908 75.7631 34.9274 
638 2 37.5326 77.914 34.9274 
639 2 37.5326 79.348 36.9553 
640 2 36.2908 77.1971 36.9553 
641 2 38.7745 75.7631 34.9274 
642 2 40.0163 77.914 34.9274 
643 2 40.0163 79.348 36.9553 
644 2 38.7745 77.1971 36.9553 
645 2 41.2582 75.7631 34.9274 
646 2 42.5 77.914 34.9274 
647 2 42.5 79.348 36.9553 
648 2 41.2582 77.1971 36.9553 
649 2 43.7418 75.7631 34.9274 
650 2 44.9837 77.914 34.9274 
651 2 44.9837 79.348 36.9553 
652 2 43.7418 77.1971 36.9553 
653 2 46.2255 75.7631 34.9274 
654 2 47.4674 77.914 34.9274 
655 2 47.4674 79.348 36.9553 
656 2 46.2255 77.1971 36.9553 
657 2 48.7092 75.7631 34.9274 
658 2 49.9511 77.914 34.9274 
659 2 49.9511 79.348 36.9553 
660 2 48.7092 77.1971 36.9553 
661 2 51.1929 75.7631 34.9274 
662 2 52.4348 77.914 34.9274 
663 2 52.4348 79.348 36.9553 
664 2 51.1929 77.1971 36.9553 
665 2 53.6766 75.7631 34.9274 
666 2 54.9185 77.914 34.9274 
667 2 54.9185 79.348 36.9553 
668 2 53.6766 77.1971 36.9553 
669 2 56.1603 75.7631 34.9274 
670 2 57.4022 77.914 34.9274 
671 2 57.4022 79.348 36.9553 
672 2 56.1603 77.1971 36.9553 
673 2 58.644 75.7631 34.9274 
674 2 59.8859 77.914 34.9274 
675 2 59.8859 79.348 36.9553 
676 2 58.644 77.1971 36.9553 
677 2 61.1277 75.7631 34.9274 
678 2 62.3696 77.914 34.9274 
679 2 62.3696 79.348 36.9553 
680 2 61.1277 77.1971 36.9553 
681 2 21.3886 80.065 34.9274 
682 2 22.6304 82.2159 34.9274 
683 2 22.6304 83.6499 36.9553 
684 2 21.3886 81.499 36.9553 
685 2 23.8723 80.065 34.9274 
686 2 25.1141 82.2159 34.9274 
687 2 25.1141 83.6499 36.9553 
688 2 23.8723 81.499 36.9553 
689 2 26.356 80.065 34.9274 
690 2 27.5978 82.2159 34.9274 
691 2 27.5978 83.6499 36.9553 
692 2 26.356 81.499 36.9553 
693 2 28.8397 80.065 34.9274 
694 2 30.0815 82.2159 34.9274 
695 2 30.0815 83.6499 36.9553 
696 2 28.8397 81.499 36.9553 
697 2 31.3234 80.065 34.9274 
698 2 32.5652 82.2159 34.9274 
699 2 32.5652 83.6499 36.9553 
700 2 31.3234 81.499 36.9553 
701 2 33.8071 80.065 34.9274 
702 2 35.0489 82.2159 34.9274 
703 2 35.0489 83.6499 36.9553 
704 2 33.8071 81.499 36.9553 
705 2 36.2908 80.065 34.9274 
706 2 37.5326 82.2159 34.9274 
707 2 37.5326 83.6499 36.9553 
708 2 36.2908 81.499 36.9553 
709 2 38.7745 80.065 34.9274 
710 2 40.0163 82.2159 34.9274 
711 2 40.0163 83.6499 36.9553 
712 2 38.7745 81.499 36.9553 
713 2 41.2582 80.065 34.9274 
714 2 42.5 82.2159 34.9274 
715 2 42.5 83.6499 36.9553 
716 2 41.2582 81.499 36.9553 
717 2 43.7418 80.065 34.9274 
718 2 44.9837 82.2159 34.9274 
719 2 44.9837 83.6499 36.9553 
720 2 43.7418 81.499 36.9553 
721 2 46.2255 80.065 34.9274 
722 2 47.4674 82.2159 34.9274 
723 2 47.4674 83.6499 36.9553 
724 2 46.2255 81.499 36.9553 
725 2 48.7092 80.065 34.9274 
726 2 49.9511 82.2159 34.9274 
727 2 49.9511 83.6499 36.9553 
728 2 48.7092 81.499 36.9553 
729 2 51.1929 80.065 34.9274 
730 2 52.4348 82.2159 34.9274 
731 2 52.4348 83.6499 36.9553 
732 2 51.1929 81.499 36.9553 
733 2 53.6766 80.065 34.9274 
734 2 54.9185 82.2159 34.9274 
735 2 54.9185 83.6499 36.9553 
736 2 53.6766 81.499 36.9553 
737 2 56.1603 80.065 34.9274 
738 2 57.4022 82.2159 34.9274 
739 2 57.4022 83.6499 36.9553 
740 2 56.1603 81.499 36.9553 
741 2 58.644 80.065 34.9274 
742 2 59.8859 82.2159 34.9274 
743 2 59.8859 83.6499 36.9553 
744 2 58.644 81.499 36.9553 
745 2 61.1277 80.065 34.9274 
746 2 62.3696 82.2159 34.9274 
747 2 62.3696 83.6499 36.9553 
748 2 61.1277 81.499 36.9553 
749 2 21.3886 84.3669 34.9274 
750 2 22.6304 86.5178 34.9274 
751 2 22.6304 87.9518 36.9553 
752 2 21.3886 85.8008 36.9553 
753 2 23.8723 84.3669 34.9274 
754 2 25.1141 86.5178 34.9274 
755 2 25.1141 87.9518 36.9553 
756 2 23.8723 85.8008 36.9553 
757 2 26.356 84.3669 34.9274 
758 2 27.5978 86.5178 34.9274 
759 2 27.5978 87.9518 36.9553 
760 2 26.356 85.8008 36.9553 
761 2 28.8397 84.3669 34.9274 
762 2 30.0815 86.5178 34.9274 
763 2 30.0815 87.9518 36.9553 
764 2 28.8397 85.8008 36.9553 
765 2 31.3234 84.3669 34.9274 
766 2 32.5652 86.5178 34.9274 
767 2 32.5652 87.9518 36.9553 
768 2 31.3234 85.8008 36.9553 
769 2 33.8071 84.3669 34.9274 
770 2 35.0489 86.5178 34.9274 
771 2 35.0489 87.9518 36.9553 
772 2 33.8071 85.8008 36.9553 
773 2 36.2908 84.3669 34.9274 
774 2 37.5326 86.5178 34.9274 
775 2 37.5326 87.9518 36.9553 
776 2 36.2908 85.8008 36.9553 
777 2 38.7745 84.3669 34.9274 
778 2 40.0163 86.5178 34.9274 
779 2 40.0163 87.9518 36.9553 
780 2 38.7745 85.8008 36.9553 
781 2 41.2582 84.3669 34.9274 
782 2 42.5 86.5178 34.9274 
783 2 42.5 87.9518 36.9553 
784 2 41.2582 85.8008 36.9553 
785 2 43.7418 84.3669 34.9274 
786 2 44.9837 86.5178 34.9274 
787 2 44.9837 87.9518 36.9553 
788 2 43.7418 85.8008 36.9553 
789 2 46.2255 84.3669 34.9274 
790 2 47.4674 86.5178 34.9274 
791 2 47.4674 87.9518 36.9553 
792 2 46.2255 85.8008 36.9553 
793 2 48.7092 84.3669 34.9274 
794 2 49.9511 86.5178 34.9274 
795 2 49.9511 87.9518 36.9553 
796 2 48.7092 85.8008 36.9553 
797 2 51.1929 84.3669 34.9274 
798 2 52.4348 86.5178 34.9274 
799 2 52.4348 87.9518 36.9553 
800 2 51.1929 85.8008 36.9553 
801 2 53.6766 84.3669 34.9274 
802 2 54.9185 86.5178 34.9274 
803 2 54.9185 87.9518 36.9553 
804 2 53.6766 85.8008 36.9553 
805 2 56.1603 84.3669 34.9274 
806 2 57.4022 86.5178 34.9274 
807 2 57.4022 87.9518 36.9553 
808 2 56.1603 85.8008 36.9553 
809 2 58.644 84.3669 34.9274 
810 2 59.8859 86.5178 34.9274 
811 2 59.8859 87.9518 36.9553 
812 2 58.644 85.8008 36.9553 
813 2 61.1277 84.3669 34.9274 
814 2 62.3696 86.5178 34.9274 
815 2 62.3696 87.9518 36.9553 
816 2 61.1277 85.8008 36.9553 
817 2 21.3886 88.6688 34.9274 
818 2 22.6304 90.8197 34.9274 
819 2 22.6304 92.2537 36.9553 
820 2 21.3886 90.1027 36.9553 
821 2 23.8723 88.6688 34.9274 
822 2 25.1141 90.8197 34.9274 
823 2 25.1141 92.2537 36.9553 
824 2 23.8723 90.1027 36.9553 
825 2 26.356 88.6688 34.9274 
826 2 27.5978 90.8197 34.9274 
827 2 27.5978 92.2537 36.9553 
828 2 26.356 90.1027 36.9553 
829 2 28.8397 88.6688 34.9274 
830 2 30.0815 90.8197 34.9274 
831 2 30.0815 92.2537 36.9553 
832 2 28.8397 90.1027 36.9553 
833 2 31.3234 88.6688 34.9274 
834 2 32.5652 90.8197 34.9274 
835 2 32.5652 92.2537 36.9553 
836 2 31.3234 90.1027 36.9553 
837 2 33.8071 88.6688 34.9274 
838 2 35.0489 90.8197 34.9274 
839 2 35.0489 92.2537 36.9553 
840 2 33.8071 90.1027 36.9553 
841 2 36.2908 88.6688 34.9274 
842 2 37.5326 90.8197 34.9274 
843 2 37.5326 92.2537 36.9553 
844 2 36.2908 90.1027 36.9553 
845 2 38.7745 88.6688 34.9274 
846 2 40.0163 90.8197 34.9274 
847 2 40.0163 92.2537 36.9553 
848 2 38.7745 90.1027 36.9553 
849 2 41.2582 88.6688 34.9274 
850 2 42.5 90.8197 34.9274 
851 2 42.5 92.2537 36.9553 
852 2 41.2582 90.1027 36.9553 
853 2 43.7418 88.6688 34.9274 
854 2 44.9837 90.8197 34.9274 
855 2 44.9837 92.2537 36.9553 
856 2 43.7418 90.1027 36.9553 
857 2 46.2255 88.6688 34.9274 
858 2 47.4674 90.8197 34.9274 
859 2 47.4674 92.2537 36.9553 
860 2 46.2255 90.1027 36.9553 
861 2 48.7092 88.6688 34.9274 
862 2 49.9511 90.8197 34.9274 
863 2 49.9511 92.2537 36.9553 
864 2 48.7092 90.1027 36.9553 
865 2 51.1929 88.6688 34.9274 
866 2 52.4348 90.8197 34.9274 
867 2 52.4348 92.2537 36.9553 
868 2 51.1929 90.1027 36.9553 
869 2 53.6766 88.6688 34.9274 
870 2 54.9185 90.8197 34.9274 
871 2 54.9185 92.2537 36.9553 
872 2 53.6766 90.1027 36.9553 
873 2 56.1603 88.6688 34.9274 
874 2 57.4022 90.8197 34.9274 
875 2 57.4022 92.2537 36.9553 
876 2 56.1603 90.1027 36.9553 
877 2 58.644 88.6688 34.9274 
878 2 59.8859 90.8197 34.9274 
879 2 59.8859 92.2537 36.9553 
880 2 58.644 90.1027 36.9553 
881 2 61.1277 88.6688 34.9274 
882 2 62.3696 90.8197 34.9274 
883 2 62.3696 92.2537 36.9553 
884 2 61.1277 90.1027 36.9553 
885 2 21.3886 92.9707 34.9274 
886 2 22.6304 95.1216 34.9274 
887 2 22.6304 96.5556 36.9553 
888 2 21.3886 94.4046 36.9553 
889 2 23.8723 92.9707 34.9274 
890 2 25.1141 95.1216 34.9274 
891 2 25.1141 96.5556 36.9553 
892 2 23.8723 94.4046 36.9553 
893 2 26.356 92.9707 34.9274 
894 2 27.5978 95.1216 34.9274 
895 2 27.5978 96.5556 36.9553 
896 2 26.356 94.4046 36.9553 
897 2 28.8397 92.9707 34.9274 
898 2 30.0815 95.1216 34.9274 
899 2 30.0815 96.5556 36.9553 
900 2 28.8397 94.4046 36.9553 
901 2 31.3234 92.9707 34.9274 
902 2 32.5652 95.1216 34.9274 
903 2 32.5652 96.5556 36.9553 
904 2 31.3234 94.4046 36.9553 
905 2 33.8071 92.9707 34.9274 
906 2 35.0489 95.1216 34.9274 
907 2 35.0489 96.5556 36.9553 
908 2 33.8071 94.4046 36.9553 
909 2 36.2908 92.9707 34.9274 
910 2 37.5326 95.1216 34.9274 
911 2 37.5326 96.5556 36.9553 
912 2 36.2908 94.4046 36.9553 
913 2 38.7745 92.9707 34.9274 
914 2 40.0163 95.1216 34.9274 
915 2 40.0163 96.5556 36.9553 
916 2 38.7745 94.4046 36.9553 
917 2 41.2582 92.9707 34.9274 
918 2 42.5 95.1216 34.9274 
919 2 42.5 96.5556 36.9553 
920 2 41.2582 94.4046 36.9553 
921 2 43.7418 92.9707 34.9274 
922 2 44.9837 95.1216 34.9274 
923 2 44.9837 96.5556 36.9553 
924 2 43.7418 94.4046 36.9553 
925 2 46.2255 92.9707 34.9274 
926 2 47.4674 95.1216 34.9274 
927 2 47.4674 96.5556 36.9553 
928 2 46.2255 94.4046 36.9553 
929 2 48.7092 92.9707 34.9274 
930 2 49.9511 95.1216 34.9274 
931 2 49.9511 96.5556 36.9553 
932 2 48.7092 94.4046 36.9553 
933 2 51.1929 92.9707 34.9274 
934 2 52.4348 95.1216 34.9274 
935 2 52.4348 96.5556 36.9553 
936 2 51.1929 94.4046 36.9553 
937 2 53.6766 92.9707 34.9274 
938 2 54.9185 95.1216 34.9274 
939 2 54.9185 96.5556 36.9553 
940 2 53.6766 94.4046 36.9553 
941 2 56.1603 92.9707 34.9274 
942 2 57.4022 95.1216 34.9274 
943 2 57.4022 96.5556 36.9553 
944 2 56.1603 94.4046 36.9553 
945 2 58.644 92.9707 34.9274 
946 2 59.8859 95.1216 34.9274 
947 2 59.8859 96.5556 36.9553 
948 2 58.644 94.4046 36.9553 
949 2 61.1277 92.9707 34.9274 
950 2 62.3696 95.1216 34.9274 
951 2 62.3696 96.5556 36.9553 
952 2 61.1277 94.4046 36.9553 
953 2 21.3886 97.2725 34.9274 
954 2 22.6304 99.4235 34.9274 
955 2 22.6304 100.857 36.9553 
956 2 21.3886 98.7065 36.9553 
957 2 23.8723 97.2725 34.9274 
958 2 25.1141 99.4235 34.9274 
959 2 25.1141 100.857 36.9553 
960 2 23.8723 98.7065 36.9553 
961 2 26.356 97.2725 34.9274 
962 2 27.5978 99.4235 34.9274 
963 2 27.5978 100.857 36.9553 
964 2 26.356 98.7065 36.9553 
965 2 28.8397 97.2725 34.9274 
966 2 30.0815 99.4235 34.9274 
967 2 30.0815 100.857 36.9553 
968 2 28.8397 98.7065 36.9553 
969 2 31.3234 97.2725 34.9274 
970 2 32.5652 99.4235 34.9274 
971 2 32.5652 100.857 36.9553 
972 2 31.3234 98.7065 36.9553 