ITEM: TIMESTEP
22
ITEM: NUMBER OF ATOMS
19652
ITEM: BOX BOUNDS pp pp pp
4.2406385980206780e+00 8.0759361401979206e+01
4.2406385980206780e+00 8.0759361401979206e+01
4.2406385980206780e+00 8.0759361401979206e+01
ITEM: ATOMS id type xu yu zu 
1 1 4.24064 4.24064 4.24064 
2 1 6.49119 6.49119 4.24064 
3 1 6.49119 4.24064 6.49119 
4 1 4.24064 6.49119 6.49119 
5 1 8.74174 4.24064 4.24064 
6 1 10.9923 6.49119 4.24064 
7 1 10.9923 4.24064 6.49119 
8 1 8.74174 6.49119 6.49119 
9 1 13.2428 4.24064 4.24064 
10 1 15.4934 6.49119 4.24064 
11 1 15.4934 4.24064 6.49119 
12 1 13.2428 6.49119 6.49119 
13 1 17.7439 4.24064 4.24064 
14 1 19.9945 6.49119 4.24064 
15 1 19.9945 4.24064 6.49119 
16 1 17.7439 6.49119 6.49119 
17 1 22.245 4.24064 4.24064 
18 1 24.4956 6.49119 4.24064 
19 1 24.4956 4.24064 6.49119 
20 1 22.245 6.49119 6.49119 
21 1 26.7461 4.24064 4.24064 
22 1 28.9967 6.49119 4.24064 
23 1 28.9967 4.24064 6.49119 
24 1 26.7461 6.49119 6.49119 
25 1 31.2472 4.24064 4.24064 
26 1 33.4978 6.49119 4.24064 
27 1 33.4978 4.24064 6.49119 
28 1 31.2472 6.49119 6.49119 
29 1 35.7483 4.24064 4.24064 
30 1 37.9989 6.49119 4.24064 
31 1 37.9989 4.24064 6.49119 
32 1 35.7483 6.49119 6.49119 
33 1 40.2494 4.24064 4.24064 
34 1 42.5 6.49119 4.24064 
35 1 42.5 4.24064 6.49119 
36 1 40.2494 6.49119 6.49119 
37 1 44.7506 4.24064 4.24064 
38 1 47.0011 6.49119 4.24064 
39 1 47.0011 4.24064 6.49119 
40 1 44.7506 6.49119 6.49119 
41 1 49.2517 4.24064 4.24064 
42 1 51.5022 6.49119 4.24064 
43 1 51.5022 4.24064 6.49119 
44 1 49.2517 6.49119 6.49119 
45 1 53.7528 4.24064 4.24064 
46 1 56.0033 6.49119 4.24064 
47 1 56.0033 4.24064 6.49119 
48 1 53.7528 6.49119 6.49119 
49 1 58.2539 4.24064 4.24064 
50 1 60.5044 6.49119 4.24064 
51 1 60.5044 4.24064 6.49119 
52 1 58.2539 6.49119 6.49119 
53 1 62.755 4.24064 4.24064 
54 1 65.0055 6.49119 4.24064 
55 1 65.0055 4.24064 6.49119 
56 1 62.755 6.49119 6.49119 
57 1 67.2561 4.24064 4.24064 
58 1 69.5066 6.49119 4.24064 
59 1 69.5066 4.24064 6.49119 
60 1 67.2561 6.49119 6.49119 
61 1 71.7572 4.24064 4.24064 
62 1 74.0077 6.49119 4.24064 
63 1 74.0077 4.24064 6.49119 
64 1 71.7572 6.49119 6.49119 
65 1 76.2583 4.24064 4.24064 
66 1 78.5088 6.49119 4.24064 
67 1 78.5088 4.24064 6.49119 
68 1 76.2583 6.49119 6.49119 
69 1 4.24064 8.74174 4.24064 
70 1 6.49119 10.9923 4.24064 
71 1 6.49119 8.74174 6.49119 
72 1 4.24064 10.9923 6.49119 
73 1 8.74174 8.74174 4.24064 
74 1 10.9923 10.9923 4.24064 
75 1 10.9923 8.74174 6.49119 
76 1 8.74174 10.9923 6.49119 
77 1 13.2428 8.74174 4.24064 
78 1 15.4934 10.9923 4.24064 
79 1 15.4934 8.74174 6.49119 
80 1 13.2428 10.9923 6.49119 
81 1 17.7439 8.74174 4.24064 
82 1 19.9945 10.9923 4.24064 
83 1 19.9945 8.74174 6.49119 
84 1 17.7439 10.9923 6.49119 
85 1 22.245 8.74174 4.24064 
86 1 24.4956 10.9923 4.24064 
87 1 24.4956 8.74174 6.49119 
88 1 22.245 10.9923 6.49119 
89 1 26.7461 8.74174 4.24064 
90 1 28.9967 10.9923 4.24064 
91 1 28.9967 8.74174 6.49119 
92 1 26.7461 10.9923 6.49119 
93 1 31.2472 8.74174 4.24064 
94 1 33.4978 10.9923 4.24064 
95 1 33.4978 8.74174 6.49119 
96 1 31.2472 10.9923 6.49119 
97 1 35.7483 8.74174 4.24064 
98 1 37.9989 10.9923 4.24064 
99 1 37.9989 8.74174 6.49119 
100 1 35.7483 10.9923 6.49119 
101 1 40.2494 8.74174 4.24064 
102 1 42.5 10.9923 4.24064 
103 1 42.5 8.74174 6.49119 
104 1 40.2494 10.9923 6.49119 
105 1 44.7506 8.74174 4.24064 
106 1 47.0011 10.9923 4.24064 
107 1 47.0011 8.74174 6.49119 
108 1 44.7506 10.9923 6.49119 
109 1 49.2517 8.74174 4.24064 
110 1 51.5022 10.9923 4.24064 
111 1 51.5022 8.74174 6.49119 
112 1 49.2517 10.9923 6.49119 
113 1 53.7528 8.74174 4.24064 
114 1 56.0033 10.9923 4.24064 
115 1 56.0033 8.74174 6.49119 
116 1 53.7528 10.9923 6.49119 
117 1 58.2539 8.74174 4.24064 
118 1 60.5044 10.9923 4.24064 
119 1 60.5044 8.74174 6.49119 
120 1 58.2539 10.9923 6.49119 
121 1 62.755 8.74174 4.24064 
122 1 65.0055 10.9923 4.24064 
123 1 65.0055 8.74174 6.49119 
124 1 62.755 10.9923 6.49119 
125 1 67.2561 8.74174 4.24064 
126 1 69.5066 10.9923 4.24064 
127 1 69.5066 8.74174 6.49119 
128 1 67.2561 10.9923 6.49119 
129 1 71.7572 8.74174 4.24064 
130 1 74.0077 10.9923 4.24064 
131 1 74.0077 8.74174 6.49119 
132 1 71.7572 10.9923 6.49119 
133 1 76.2583 8.74174 4.24064 
134 1 78.5088 10.9923 4.24064 
135 1 78.5088 8.74174 6.49119 
136 1 76.2583 10.9923 6.49119 
137 1 4.24064 13.2428 4.24064 
138 1 6.49119 15.4934 4.24064 
139 1 6.49119 13.2428 6.49119 
140 1 4.24064 15.4934 6.49119 
141 1 8.74174 13.2428 4.24064 
142 1 10.9923 15.4934 4.24064 
143 1 10.9923 13.2428 6.49119 
144 1 8.74174 15.4934 6.49119 
145 1 13.2428 13.2428 4.24064 
146 1 15.4934 15.4934 4.24064 
147 1 15.4934 13.2428 6.49119 
148 1 13.2428 15.4934 6.49119 
149 1 17.7439 13.2428 4.24064 
150 1 19.9945 15.4934 4.24064 
151 1 19.9945 13.2428 6.49119 
152 1 17.7439 15.4934 6.49119 
153 1 22.245 13.2428 4.24064 
154 1 24.4956 15.4934 4.24064 
155 1 24.4956 13.2428 6.49119 
156 1 22.245 15.4934 6.49119 
157 1 26.7461 13.2428 4.24064 
158 1 28.9967 15.4934 4.24064 
159 1 28.9967 13.2428 6.49119 
160 1 26.7461 15.4934 6.49119 
161 1 31.2472 13.2428 4.24064 
162 1 33.4978 15.4934 4.24064 
163 1 33.4978 13.2428 6.49119 
164 1 31.2472 15.4934 6.49119 
165 1 35.7483 13.2428 4.24064 
166 1 37.9989 15.4934 4.24064 
167 1 37.9989 13.2428 6.49119 
168 1 35.7483 15.4934 6.49119 
169 1 40.2494 13.2428 4.24064 
170 1 42.5 15.4934 4.24064 
171 1 42.5 13.2428 6.49119 
172 1 40.2494 15.4934 6.49119 
173 1 44.7506 13.2428 4.24064 
174 1 47.0011 15.4934 4.24064 
175 1 47.0011 13.2428 6.49119 
176 1 44.7506 15.4934 6.49119 
177 1 49.2517 13.2428 4.24064 
178 1 51.5022 15.4934 4.24064 
179 1 51.5022 13.2428 6.49119 
180 1 49.2517 15.4934 6.49119 
181 1 53.7528 13.2428 4.24064 
182 1 56.0033 15.4934 4.24064 
183 1 56.0033 13.2428 6.49119 
184 1 53.7528 15.4934 6.49119 
185 1 58.2539 13.2428 4.24064 
186 1 60.5044 15.4934 4.24064 
187 1 60.5044 13.2428 6.49119 
188 1 58.2539 15.4934 6.49119 
189 1 62.755 13.2428 4.24064 
190 1 65.0055 15.4934 4.24064 
191 1 65.0055 13.2428 6.49119 
192 1 62.755 15.4934 6.49119 
193 1 67.2561 13.2428 4.24064 
194 1 69.5066 15.4934 4.24064 
195 1 69.5066 13.2428 6.49119 
196 1 67.2561 15.4934 6.49119 
197 1 71.7572 13.2428 4.24064 
198 1 74.0077 15.4934 4.24064 
199 1 74.0077 13.2428 6.49119 
200 1 71.7572 15.4934 6.49119 
201 1 76.2583 13.2428 4.24064 
202 1 78.5088 15.4934 4.24064 
203 1 78.5088 13.2428 6.49119 
204 1 76.2583 15.4934 6.49119 
205 1 4.24064 17.7439 4.24064 
206 1 6.49119 19.9945 4.24064 
207 1 6.49119 17.7439 6.49119 
208 1 4.24064 19.9945 6.49119 
209 1 8.74174 17.7439 4.24064 
210 1 10.9923 19.9945 4.24064 
211 1 10.9923 17.7439 6.49119 
212 1 8.74174 19.9945 6.49119 
213 1 13.2428 17.7439 4.24064 
214 1 15.4934 19.9945 4.24064 
215 1 15.4934 17.7439 6.49119 
216 1 13.2428 19.9945 6.49119 
217 1 17.7439 17.7439 4.24064 
218 1 19.9945 19.9945 4.24064 
219 1 19.9945 17.7439 6.49119 
220 1 17.7439 19.9945 6.49119 
221 1 22.245 17.7439 4.24064 
222 1 24.4956 19.9945 4.24064 
223 1 24.4956 17.7439 6.49119 
224 1 22.245 19.9945 6.49119 
225 1 26.7461 17.7439 4.24064 
226 1 28.9967 19.9945 4.24064 
227 1 28.9967 17.7439 6.49119 
228 1 26.7461 19.9945 6.49119 
229 1 31.2472 17.7439 4.24064 
230 1 33.4978 19.9945 4.24064 
231 1 33.4978 17.7439 6.49119 
232 1 31.2472 19.9945 6.49119 
233 1 35.7483 17.7439 4.24064 
234 1 37.9989 19.9945 4.24064 
235 1 37.9989 17.7439 6.49119 
236 1 35.7483 19.9945 6.49119 
237 1 40.2494 17.7439 4.24064 
238 1 42.5 19.9945 4.24064 
239 1 42.5 17.7439 6.49119 
240 1 40.2494 19.9945 6.49119 
241 1 44.7506 17.7439 4.24064 
242 1 47.0011 19.9945 4.24064 
243 1 47.0011 17.7439 6.49119 
244 1 44.7506 19.9945 6.49119 
245 1 49.2517 17.7439 4.24064 
246 1 51.5022 19.9945 4.24064 
247 1 51.5022 17.7439 6.49119 
248 1 49.2517 19.9945 6.49119 
249 1 53.7528 17.7439 4.24064 
250 1 56.0033 19.9945 4.24064 
251 1 56.0033 17.7439 6.49119 
252 1 53.7528 19.9945 6.49119 
253 1 58.2539 17.7439 4.24064 
254 1 60.5044 19.9945 4.24064 
255 1 60.5044 17.7439 6.49119 
256 1 58.2539 19.9945 6.49119 
257 1 62.755 17.7439 4.24064 
258 1 65.0055 19.9945 4.24064 
259 1 65.0055 17.7439 6.49119 
260 1 62.755 19.9945 6.49119 
261 1 67.2561 17.7439 4.24064 
262 1 69.5066 19.9945 4.24064 
263 1 69.5066 17.7439 6.49119 
264 1 67.2561 19.9945 6.49119 
265 1 71.7572 17.7439 4.24064 
266 1 74.0077 19.9945 4.24064 
267 1 74.0077 17.7439 6.49119 
268 1 71.7572 19.9945 6.49119 
269 1 76.2583 17.7439 4.24064 
270 1 78.5088 19.9945 4.24064 
271 1 78.5088 17.7439 6.49119 
272 1 76.2583 19.9945 6.49119 
273 1 4.24064 22.245 4.24064 
274 1 6.49119 24.4956 4.24064 
275 1 6.49119 22.245 6.49119 
276 1 4.24064 24.4956 6.49119 
277 1 8.74174 22.245 4.24064 
278 1 10.9923 24.4956 4.24064 
279 1 10.9923 22.245 6.49119 
280 1 8.74174 24.4956 6.49119 
281 1 13.2428 22.245 4.24064 
282 1 15.4934 24.4956 4.24064 
283 1 15.4934 22.245 6.49119 
284 1 13.2428 24.4956 6.49119 
285 1 17.7439 22.245 4.24064 
286 1 19.9945 24.4956 4.24064 
287 1 19.9945 22.245 6.49119 
288 1 17.7439 24.4956 6.49119 
289 1 22.245 22.245 4.24064 
290 1 24.4956 24.4956 4.24064 
291 1 24.4956 22.245 6.49119 
292 1 22.245 24.4956 6.49119 
293 1 26.7461 22.245 4.24064 
294 1 28.9967 24.4956 4.24064 
295 1 28.9967 22.245 6.49119 
296 1 26.7461 24.4956 6.49119 
297 1 31.2472 22.245 4.24064 
298 1 33.4978 24.4956 4.24064 
299 1 33.4978 22.245 6.49119 
300 1 31.2472 24.4956 6.49119 
301 1 35.7483 22.245 4.24064 
302 1 37.9989 24.4956 4.24064 
303 1 37.9989 22.245 6.49119 
304 1 35.7483 24.4956 6.49119 
305 1 40.2494 22.245 4.24064 
306 1 42.5 24.4956 4.24064 
307 1 42.5 22.245 6.49119 
308 1 40.2494 24.4956 6.49119 
309 1 44.7506 22.245 4.24064 
310 1 47.0011 24.4956 4.24064 
311 1 47.0011 22.245 6.49119 
312 1 44.7506 24.4956 6.49119 
313 1 49.2517 22.245 4.24064 
314 1 51.5022 24.4956 4.24064 
315 1 51.5022 22.245 6.49119 
316 1 49.2517 24.4956 6.49119 
317 1 53.7528 22.245 4.24064 
318 1 56.0033 24.4956 4.24064 
319 1 56.0033 22.245 6.49119 
320 1 53.7528 24.4956 6.49119 
321 1 58.2539 22.245 4.24064 
322 1 60.5044 24.4956 4.24064 
323 1 60.5044 22.245 6.49119 
324 1 58.2539 24.4956 6.49119 
325 1 62.755 22.245 4.24064 
326 1 65.0055 24.4956 4.24064 
327 1 65.0055 22.245 6.49119 
328 1 62.755 24.4956 6.49119 
329 1 67.2561 22.245 4.24064 
330 1 69.5066 24.4956 4.24064 
331 1 69.5066 22.245 6.49119 
332 1 67.2561 24.4956 6.49119 
333 1 71.7572 22.245 4.24064 
334 1 74.0077 24.4956 4.24064 
335 1 74.0077 22.245 6.49119 
336 1 71.7572 24.4956 6.49119 
337 1 76.2583 22.245 4.24064 
338 1 78.5088 24.4956 4.24064 
339 1 78.5088 22.245 6.49119 
340 1 76.2583 24.4956 6.49119 
341 1 4.24064 26.7461 4.24064 
342 1 6.49119 28.9967 4.24064 
343 1 6.49119 26.7461 6.49119 
344 1 4.24064 28.9967 6.49119 
345 1 8.74174 26.7461 4.24064 
346 1 10.9923 28.9967 4.24064 
347 1 10.9923 26.7461 6.49119 
348 1 8.74174 28.9967 6.49119 
349 1 13.2428 26.7461 4.24064 
350 1 15.4934 28.9967 4.24064 
351 1 15.4934 26.7461 6.49119 
352 1 13.2428 28.9967 6.49119 
353 1 17.7439 26.7461 4.24064 
354 1 19.9945 28.9967 4.24064 
355 1 19.9945 26.7461 6.49119 
356 1 17.7439 28.9967 6.49119 
357 1 22.245 26.7461 4.24064 
358 1 24.4956 28.9967 4.24064 
359 1 24.4956 26.7461 6.49119 
360 1 22.245 28.9967 6.49119 
361 1 26.7461 26.7461 4.24064 
362 1 28.9967 28.9967 4.24064 
363 1 28.9967 26.7461 6.49119 
364 1 26.7461 28.9967 6.49119 
365 1 31.2472 26.7461 4.24064 
366 1 33.4978 28.9967 4.24064 
367 1 33.4978 26.7461 6.49119 
368 1 31.2472 28.9967 6.49119 
369 1 35.7483 26.7461 4.24064 
370 1 37.9989 28.9967 4.24064 
371 1 37.9989 26.7461 6.49119 
372 1 35.7483 28.9967 6.49119 
373 1 40.2494 26.7461 4.24064 
374 1 42.5 28.9967 4.24064 
375 1 42.5 26.7461 6.49119 
376 1 40.2494 28.9967 6.49119 
377 1 44.7506 26.7461 4.24064 
378 1 47.0011 28.9967 4.24064 
379 1 47.0011 26.7461 6.49119 
380 1 44.7506 28.9967 6.49119 
381 1 49.2517 26.7461 4.24064 
382 1 51.5022 28.9967 4.24064 
383 1 51.5022 26.7461 6.49119 
384 1 49.2517 28.9967 6.49119 
385 1 53.7528 26.7461 4.24064 
386 1 56.0033 28.9967 4.24064 
387 1 56.0033 26.7461 6.49119 
388 1 53.7528 28.9967 6.49119 
389 1 58.2539 26.7461 4.24064 
390 1 60.5044 28.9967 4.24064 
391 1 60.5044 26.7461 6.49119 
392 1 58.2539 28.9967 6.49119 
393 1 62.755 26.7461 4.24064 
394 1 65.0055 28.9967 4.24064 
395 1 65.0055 26.7461 6.49119 
396 1 62.755 28.9967 6.49119 
397 1 67.2561 26.7461 4.24064 
398 1 69.5066 28.9967 4.24064 
399 1 69.5066 26.7461 6.49119 
400 1 67.2561 28.9967 6.49119 
401 1 71.7572 26.7461 4.24064 
402 1 74.0077 28.9967 4.24064 
403 1 74.0077 26.7461 6.49119 
404 1 71.7572 28.9967 6.49119 
405 1 76.2583 26.7461 4.24064 
406 1 78.5088 28.9967 4.24064 
407 1 78.5088 26.7461 6.49119 
408 1 76.2583 28.9967 6.49119 
409 1 4.24064 31.2472 4.24064 
410 1 6.49119 33.4978 4.24064 
411 1 6.49119 31.2472 6.49119 
412 1 4.24064 33.4978 6.49119 
413 1 8.74174 31.2472 4.24064 
414 1 10.9923 33.4978 4.24064 
415 1 10.9923 31.2472 6.49119 
416 1 8.74174 33.4978 6.49119 
417 1 13.2428 31.2472 4.24064 
418 1 15.4934 33.4978 4.24064 
419 1 15.4934 31.2472 6.49119 
420 1 13.2428 33.4978 6.49119 
421 1 17.7439 31.2472 4.24064 
422 1 19.9945 33.4978 4.24064 
423 1 19.9945 31.2472 6.49119 
424 1 17.7439 33.4978 6.49119 
425 1 22.245 31.2472 4.24064 
426 1 24.4956 33.4978 4.24064 
427 1 24.4956 31.2472 6.49119 
428 1 22.245 33.4978 6.49119 
429 1 26.7461 31.2472 4.24064 
430 1 28.9967 33.4978 4.24064 
431 1 28.9967 31.2472 6.49119 
432 1 26.7461 33.4978 6.49119 
433 1 31.2472 31.2472 4.24064 
434 1 33.4978 33.4978 4.24064 
435 1 33.4978 31.2472 6.49119 
436 1 31.2472 33.4978 6.49119 
437 1 35.7483 31.2472 4.24064 
438 1 37.9989 33.4978 4.24064 
439 1 37.9989 31.2472 6.49119 
440 1 35.7483 33.4978 6.49119 
441 1 40.2494 31.2472 4.24064 
442 1 42.5 33.4978 4.24064 
443 1 42.5 31.2472 6.49119 
444 1 40.2494 33.4978 6.49119 
445 1 44.7506 31.2472 4.24064 
446 1 47.0011 33.4978 4.24064 
447 1 47.0011 31.2472 6.49119 
448 1 44.7506 33.4978 6.49119 
449 1 49.2517 31.2472 4.24064 
450 1 51.5022 33.4978 4.24064 
451 1 51.5022 31.2472 6.49119 
452 1 49.2517 33.4978 6.49119 
453 1 53.7528 31.2472 4.24064 
454 1 56.0033 33.4978 4.24064 
455 1 56.0033 31.2472 6.49119 
456 1 53.7528 33.4978 6.49119 
457 1 58.2539 31.2472 4.24064 
458 1 60.5044 33.4978 4.24064 
459 1 60.5044 31.2472 6.49119 
460 1 58.2539 33.4978 6.49119 
461 1 62.755 31.2472 4.24064 
462 1 65.0055 33.4978 4.24064 
463 1 65.0055 31.2472 6.49119 
464 1 62.755 33.4978 6.49119 
465 1 67.2561 31.2472 4.24064 
466 1 69.5066 33.4978 4.24064 
467 1 69.5066 31.2472 6.49119 
468 1 67.2561 33.4978 6.49119 
469 1 71.7572 31.2472 4.24064 
470 1 74.0077 33.4978 4.24064 
471 1 74.0077 31.2472 6.49119 
472 1 71.7572 33.4978 6.49119 
473 1 76.2583 31.2472 4.24064 
474 1 78.5088 33.4978 4.24064 
475 1 78.5088 31.2472 6.49119 
476 1 76.2583 33.4978 6.49119 
477 1 4.24064 35.7483 4.24064 
478 1 6.49119 37.9989 4.24064 
479 1 6.49119 35.7483 6.49119 
480 1 4.24064 37.9989 6.49119 
481 1 8.74174 35.7483 4.24064 
482 1 10.9923 37.9989 4.24064 
483 1 10.9923 35.7483 6.49119 
484 1 8.74174 37.9989 6.49119 
485 1 13.2428 35.7483 4.24064 
486 1 15.4934 37.9989 4.24064 
487 1 15.4934 35.7483 6.49119 
488 1 13.2428 37.9989 6.49119 
489 1 17.7439 35.7483 4.24064 
490 1 19.9945 37.9989 4.24064 
491 1 19.9945 35.7483 6.49119 
492 1 17.7439 37.9989 6.49119 
493 1 22.245 35.7483 4.24064 
494 1 24.4956 37.9989 4.24064 
495 1 24.4956 35.7483 6.49119 
496 1 22.245 37.9989 6.49119 
497 1 26.7461 35.7483 4.24064 
498 1 28.9967 37.9989 4.24064 
499 1 28.9967 35.7483 6.49119 
500 1 26.7461 37.9989 6.49119 
501 1 31.2472 35.7483 4.24064 
502 1 33.4978 37.9989 4.24064 
503 1 33.4978 35.7483 6.49119 
504 1 31.2472 37.9989 6.49119 
505 1 35.7483 35.7483 4.24064 
506 1 37.9989 37.9989 4.24064 
507 1 37.9989 35.7483 6.49119 
508 1 35.7483 37.9989 6.49119 
509 1 40.2494 35.7483 4.24064 
510 1 42.5 37.9989 4.24064 
511 1 42.5 35.7483 6.49119 
512 1 40.2494 37.9989 6.49119 
513 1 44.7506 35.7483 4.24064 
514 1 47.0011 37.9989 4.24064 
515 1 47.0011 35.7483 6.49119 
516 1 44.7506 37.9989 6.49119 
517 1 49.2517 35.7483 4.24064 
518 1 51.5022 37.9989 4.24064 
519 1 51.5022 35.7483 6.49119 
520 1 49.2517 37.9989 6.49119 
521 1 53.7528 35.7483 4.24064 
522 1 56.0033 37.9989 4.24064 
523 1 56.0033 35.7483 6.49119 
524 1 53.7528 37.9989 6.49119 
525 1 58.2539 35.7483 4.24064 
526 1 60.5044 37.9989 4.24064 
527 1 60.5044 35.7483 6.49119 
528 1 58.2539 37.9989 6.49119 
529 1 62.755 35.7483 4.24064 
530 1 65.0055 37.9989 4.24064 
531 1 65.0055 35.7483 6.49119 
532 1 62.755 37.9989 6.49119 
533 1 67.2561 35.7483 4.24064 
534 1 69.5066 37.9989 4.24064 
535 1 69.5066 35.7483 6.49119 
536 1 67.2561 37.9989 6.49119 
537 1 71.7572 35.7483 4.24064 
538 1 74.0077 37.9989 4.24064 
539 1 74.0077 35.7483 6.49119 
540 1 71.7572 37.9989 6.49119 
541 1 76.2583 35.7483 4.24064 
542 1 78.5088 37.9989 4.24064 
543 1 78.5088 35.7483 6.49119 
544 1 76.2583 37.9989 6.49119 
545 1 4.24064 40.2494 4.24064 
546 1 6.49119 42.5 4.24064 
547 1 6.49119 40.2494 6.49119 
548 1 4.24064 42.5 6.49119 
549 1 8.74174 40.2494 4.24064 
550 1 10.9923 42.5 4.24064 
551 1 10.9923 40.2494 6.49119 
552 1 8.74174 42.5 6.49119 
553 1 13.2428 40.2494 4.24064 
554 1 15.4934 42.5 4.24064 
555 1 15.4934 40.2494 6.49119 
556 1 13.2428 42.5 6.49119 
557 1 17.7439 40.2494 4.24064 
558 1 19.9945 42.5 4.24064 
559 1 19.9945 40.2494 6.49119 
560 1 17.7439 42.5 6.49119 
561 1 22.245 40.2494 4.24064 
562 1 24.4956 42.5 4.24064 
563 1 24.4956 40.2494 6.49119 
564 1 22.245 42.5 6.49119 
565 1 26.7461 40.2494 4.24064 
566 1 28.9967 42.5 4.24064 
567 1 28.9967 40.2494 6.49119 
568 1 26.7461 42.5 6.49119 
569 1 31.2472 40.2494 4.24064 
570 1 33.4978 42.5 4.24064 
571 1 33.4978 40.2494 6.49119 
572 1 31.2472 42.5 6.49119 
573 1 35.7483 40.2494 4.24064 
574 1 37.9989 42.5 4.24064 
575 1 37.9989 40.2494 6.49119 
576 1 35.7483 42.5 6.49119 
577 1 40.2494 40.2494 4.24064 
578 1 42.5 42.5 4.24064 
579 1 42.5 40.2494 6.49119 
580 1 40.2494 42.5 6.49119 
581 1 44.7506 40.2494 4.24064 
582 1 47.0011 42.5 4.24064 
583 1 47.0011 40.2494 6.49119 
584 1 44.7506 42.5 6.49119 
585 1 49.2517 40.2494 4.24064 
586 1 51.5022 42.5 4.24064 
587 1 51.5022 40.2494 6.49119 
588 1 49.2517 42.5 6.49119 
589 1 53.7528 40.2494 4.24064 
590 1 56.0033 42.5 4.24064 
591 1 56.0033 40.2494 6.49119 
592 1 53.7528 42.5 6.49119 
593 1 58.2539 40.2494 4.24064 
594 1 60.5044 42.5 4.24064 
595 1 60.5044 40.2494 6.49119 
596 1 58.2539 42.5 6.49119 
597 1 62.755 40.2494 4.24064 
598 1 65.0055 42.5 4.24064 
599 1 65.0055 40.2494 6.49119 
600 1 62.755 42.5 6.49119 
601 1 67.2561 40.2494 4.24064 
602 1 69.5066 42.5 4.24064 
603 1 69.5066 40.2494 6.49119 
604 1 67.2561 42.5 6.49119 
605 1 71.7572 40.2494 4.24064 
606 1 74.0077 42.5 4.24064 
607 1 74.0077 40.2494 6.49119 
608 1 71.7572 42.5 6.49119 
609 1 76.2583 40.2494 4.24064 
610 1 78.5088 42.5 4.24064 
611 1 78.5088 40.2494 6.49119 
612 1 76.2583 42.5 6.49119 
613 1 4.24064 44.7506 4.24064 
614 1 6.49119 47.0011 4.24064 
615 1 6.49119 44.7506 6.49119 
616 1 4.24064 47.0011 6.49119 
617 1 8.74174 44.7506 4.24064 
618 1 10.9923 47.0011 4.24064 
619 1 10.9923 44.7506 6.49119 
620 1 8.74174 47.0011 6.49119 
621 1 13.2428 44.7506 4.24064 
622 1 15.4934 47.0011 4.24064 
623 1 15.4934 44.7506 6.49119 
624 1 13.2428 47.0011 6.49119 
625 1 17.7439 44.7506 4.24064 
626 1 19.9945 47.0011 4.24064 
627 1 19.9945 44.7506 6.49119 
628 1 17.7439 47.0011 6.49119 
629 1 22.245 44.7506 4.24064 
630 1 24.4956 47.0011 4.24064 
631 1 24.4956 44.7506 6.49119 
632 1 22.245 47.0011 6.49119 
633 1 26.7461 44.7506 4.24064 
634 1 28.9967 47.0011 4.24064 
635 1 28.9967 44.7506 6.49119 
636 1 26.7461 47.0011 6.49119 
637 1 31.2472 44.7506 4.24064 
638 1 33.4978 47.0011 4.24064 
639 1 33.4978 44.7506 6.49119 
640 1 31.2472 47.0011 6.49119 
641 1 35.7483 44.7506 4.24064 
642 1 37.9989 47.0011 4.24064 
643 1 37.9989 44.7506 6.49119 
644 1 35.7483 47.0011 6.49119 
645 1 40.2494 44.7506 4.24064 
646 1 42.5 47.0011 4.24064 
647 1 42.5 44.7506 6.49119 
648 1 40.2494 47.0011 6.49119 
649 1 44.7506 44.7506 4.24064 
650 1 47.0011 47.0011 4.24064 
651 1 47.0011 44.7506 6.49119 
652 1 44.7506 47.0011 6.49119 
653 1 49.2517 44.7506 4.24064 
654 1 51.5022 47.0011 4.24064 
655 1 51.5022 44.7506 6.49119 
656 1 49.2517 47.0011 6.49119 
657 1 53.7528 44.7506 4.24064 
658 1 56.0033 47.0011 4.24064 
659 1 56.0033 44.7506 6.49119 
660 1 53.7528 47.0011 6.49119 
661 1 58.2539 44.7506 4.24064 
662 1 60.5044 47.0011 4.24064 
663 1 60.5044 44.7506 6.49119 
664 1 58.2539 47.0011 6.49119 
665 1 62.755 44.7506 4.24064 
666 1 65.0055 47.0011 4.24064 
667 1 65.0055 44.7506 6.49119 
668 1 62.755 47.0011 6.49119 
669 1 67.2561 44.7506 4.24064 
670 1 69.5066 47.0011 4.24064 
671 1 69.5066 44.7506 6.49119 
672 1 67.2561 47.0011 6.49119 
673 1 71.7572 44.7506 4.24064 
674 1 74.0077 47.0011 4.24064 
675 1 74.0077 44.7506 6.49119 
676 1 71.7572 47.0011 6.49119 
677 1 76.2583 44.7506 4.24064 
678 1 78.5088 47.0011 4.24064 
679 1 78.5088 44.7506 6.49119 
680 1 76.2583 47.0011 6.49119 
681 1 4.24064 49.2517 4.24064 
682 1 6.49119 51.5022 4.24064 
683 1 6.49119 49.2517 6.49119 
684 1 4.24064 51.5022 6.49119 
685 1 8.74174 49.2517 4.24064 
686 1 10.9923 51.5022 4.24064 
687 1 10.9923 49.2517 6.49119 
688 1 8.74174 51.5022 6.49119 
689 1 13.2428 49.2517 4.24064 
690 1 15.4934 51.5022 4.24064 
691 1 15.4934 49.2517 6.49119 
692 1 13.2428 51.5022 6.49119 
693 1 17.7439 49.2517 4.24064 
694 1 19.9945 51.5022 4.24064 
695 1 19.9945 49.2517 6.49119 
696 1 17.7439 51.5022 6.49119 
697 1 22.245 49.2517 4.24064 
698 1 24.4956 51.5022 4.24064 
699 1 24.4956 49.2517 6.49119 
700 1 22.245 51.5022 6.49119 
701 1 26.7461 49.2517 4.24064 
702 1 28.9967 51.5022 4.24064 
703 1 28.9967 49.2517 6.49119 
704 1 26.7461 51.5022 6.49119 
705 1 31.2472 49.2517 4.24064 
706 1 33.4978 51.5022 4.24064 
707 1 33.4978 49.2517 6.49119 
708 1 31.2472 51.5022 6.49119 
709 1 35.7483 49.2517 4.24064 
710 1 37.9989 51.5022 4.24064 
711 1 37.9989 49.2517 6.49119 
712 1 35.7483 51.5022 6.49119 
713 1 40.2494 49.2517 4.24064 
714 1 42.5 51.5022 4.24064 
715 1 42.5 49.2517 6.49119 
716 1 40.2494 51.5022 6.49119 
717 1 44.7506 49.2517 4.24064 
718 1 47.0011 51.5022 4.24064 
719 1 47.0011 49.2517 6.49119 
720 1 44.7506 51.5022 6.49119 
721 1 49.2517 49.2517 4.24064 
722 1 51.5022 51.5022 4.24064 
723 1 51.5022 49.2517 6.49119 
724 1 49.2517 51.5022 6.49119 
725 1 53.7528 49.2517 4.24064 
726 1 56.0033 51.5022 4.24064 
727 1 56.0033 49.2517 6.49119 
728 1 53.7528 51.5022 6.49119 
729 1 58.2539 49.2517 4.24064 
730 1 60.5044 51.5022 4.24064 
731 1 60.5044 49.2517 6.49119 
732 1 58.2539 51.5022 6.49119 
733 1 62.755 49.2517 4.24064 
734 1 65.0055 51.5022 4.24064 
735 1 65.0055 49.2517 6.49119 
736 1 62.755 51.5022 6.49119 
737 1 67.2561 49.2517 4.24064 
738 1 69.5066 51.5022 4.24064 
739 1 69.5066 49.2517 6.49119 
740 1 67.2561 51.5022 6.49119 
741 1 71.7572 49.2517 4.24064 
742 1 74.0077 51.5022 4.24064 
743 1 74.0077 49.2517 6.49119 
744 1 71.7572 51.5022 6.49119 
745 1 76.2583 49.2517 4.24064 
746 1 78.5088 51.5022 4.24064 
747 1 78.5088 49.2517 6.49119 
748 1 76.2583 51.5022 6.49119 
749 1 4.24064 53.7528 4.24064 
750 1 6.49119 56.0033 4.24064 
751 1 6.49119 53.7528 6.49119 
752 1 4.24064 56.0033 6.49119 
753 1 8.74174 53.7528 4.24064 
754 1 10.9923 56.0033 4.24064 
755 1 10.9923 53.7528 6.49119 
756 1 8.74174 56.0033 6.49119 
757 1 13.2428 53.7528 4.24064 
758 1 15.4934 56.0033 4.24064 
759 1 15.4934 53.7528 6.49119 
760 1 13.2428 56.0033 6.49119 
761 1 17.7439 53.7528 4.24064 
762 1 19.9945 56.0033 4.24064 
763 1 19.9945 53.7528 6.49119 
764 1 17.7439 56.0033 6.49119 
765 1 22.245 53.7528 4.24064 
766 1 24.4956 56.0033 4.24064 
767 1 24.4956 53.7528 6.49119 
768 1 22.245 56.0033 6.49119 
769 1 26.7461 53.7528 4.24064 
770 1 28.9967 56.0033 4.24064 
771 1 28.9967 53.7528 6.49119 
772 1 26.7461 56.0033 6.49119 
773 1 31.2472 53.7528 4.24064 
774 1 33.4978 56.0033 4.24064 
775 1 33.4978 53.7528 6.49119 
776 1 31.2472 56.0033 6.49119 
777 1 35.7483 53.7528 4.24064 
778 1 37.9989 56.0033 4.24064 
779 1 37.9989 53.7528 6.49119 
780 1 35.7483 56.0033 6.49119 
781 1 40.2494 53.7528 4.24064 
782 1 42.5 56.0033 4.24064 
783 1 42.5 53.7528 6.49119 
784 1 40.2494 56.0033 6.49119 
785 1 44.7506 53.7528 4.24064 
786 1 47.0011 56.0033 4.24064 
787 1 47.0011 53.7528 6.49119 
788 1 44.7506 56.0033 6.49119 
789 1 49.2517 53.7528 4.24064 
790 1 51.5022 56.0033 4.24064 
791 1 51.5022 53.7528 6.49119 
792 1 49.2517 56.0033 6.49119 
793 1 53.7528 53.7528 4.24064 
794 1 56.0033 56.0033 4.24064 
795 1 56.0033 53.7528 6.49119 
796 1 53.7528 56.0033 6.49119 
797 1 58.2539 53.7528 4.24064 
798 1 60.5044 56.0033 4.24064 
799 1 60.5044 53.7528 6.49119 
800 1 58.2539 56.0033 6.49119 
801 1 62.755 53.7528 4.24064 
802 1 65.0055 56.0033 4.24064 
803 1 65.0055 53.7528 6.49119 
804 1 62.755 56.0033 6.49119 
805 1 67.2561 53.7528 4.24064 
806 1 69.5066 56.0033 4.24064 
807 1 69.5066 53.7528 6.49119 
808 1 67.2561 56.0033 6.49119 
809 1 71.7572 53.7528 4.24064 
810 1 74.0077 56.0033 4.24064 
811 1 74.0077 53.7528 6.49119 
812 1 71.7572 56.0033 6.49119 
813 1 76.2583 53.7528 4.24064 
814 1 78.5088 56.0033 4.24064 
815 1 78.5088 53.7528 6.49119 
816 1 76.2583 56.0033 6.49119 
817 1 4.24064 58.2539 4.24064 
818 1 6.49119 60.5044 4.24064 
819 1 6.49119 58.2539 6.49119 
820 1 4.24064 60.5044 6.49119 
821 1 8.74174 58.2539 4.24064 
822 1 10.9923 60.5044 4.24064 
823 1 10.9923 58.2539 6.49119 
824 1 8.74174 60.5044 6.49119 
825 1 13.2428 58.2539 4.24064 
826 1 15.4934 60.5044 4.24064 
827 1 15.4934 58.2539 6.49119 
828 1 13.2428 60.5044 6.49119 
829 1 17.7439 58.2539 4.24064 
830 1 19.9945 60.5044 4.24064 
831 1 19.9945 58.2539 6.49119 
832 1 17.7439 60.5044 6.49119 
833 1 22.245 58.2539 4.24064 
834 1 24.4956 60.5044 4.24064 
835 1 24.4956 58.2539 6.49119 
836 1 22.245 60.5044 6.49119 
837 1 26.7461 58.2539 4.24064 
838 1 28.9967 60.5044 4.24064 
839 1 28.9967 58.2539 6.49119 
840 1 26.7461 60.5044 6.49119 
841 1 31.2472 58.2539 4.24064 
842 1 33.4978 60.5044 4.24064 
843 1 33.4978 58.2539 6.49119 
844 1 31.2472 60.5044 6.49119 
845 1 35.7483 58.2539 4.24064 
846 1 37.9989 60.5044 4.24064 
847 1 37.9989 58.2539 6.49119 
848 1 35.7483 60.5044 6.49119 
849 1 40.2494 58.2539 4.24064 
850 1 42.5 60.5044 4.24064 
851 1 42.5 58.2539 6.49119 
852 1 40.2494 60.5044 6.49119 
853 1 44.7506 58.2539 4.24064 
854 1 47.0011 60.5044 4.24064 
855 1 47.0011 58.2539 6.49119 
856 1 44.7506 60.5044 6.49119 
857 1 49.2517 58.2539 4.24064 
858 1 51.5022 60.5044 4.24064 
859 1 51.5022 58.2539 6.49119 
860 1 49.2517 60.5044 6.49119 
861 1 53.7528 58.2539 4.24064 
862 1 56.0033 60.5044 4.24064 
863 1 56.0033 58.2539 6.49119 
864 1 53.7528 60.5044 6.49119 
865 1 58.2539 58.2539 4.24064 
866 1 60.5044 60.5044 4.24064 
867 1 60.5044 58.2539 6.49119 
868 1 58.2539 60.5044 6.49119 
869 1 62.755 58.2539 4.24064 
870 1 65.0055 60.5044 4.24064 
871 1 65.0055 58.2539 6.49119 
872 1 62.755 60.5044 6.49119 
873 1 67.2561 58.2539 4.24064 
874 1 69.5066 60.5044 4.24064 
875 1 69.5066 58.2539 6.49119 
876 1 67.2561 60.5044 6.49119 
877 1 71.7572 58.2539 4.24064 
878 1 74.0077 60.5044 4.24064 
879 1 74.0077 58.2539 6.49119 
880 1 71.7572 60.5044 6.49119 
881 1 76.2583 58.2539 4.24064 
882 1 78.5088 60.5044 4.24064 
883 1 78.5088 58.2539 6.49119 
884 1 76.2583 60.5044 6.49119 
885 1 4.24064 62.755 4.24064 
886 1 6.49119 65.0055 4.24064 
887 1 6.49119 62.755 6.49119 
888 1 4.24064 65.0055 6.49119 
889 1 8.74174 62.755 4.24064 
890 1 10.9923 65.0055 4.24064 
891 1 10.9923 62.755 6.49119 
892 1 8.74174 65.0055 6.49119 
893 1 13.2428 62.755 4.24064 
894 1 15.4934 65.0055 4.24064 
895 1 15.4934 62.755 6.49119 
896 1 13.2428 65.0055 6.49119 
897 1 17.7439 62.755 4.24064 
898 1 19.9945 65.0055 4.24064 
899 1 19.9945 62.755 6.49119 
900 1 17.7439 65.0055 6.49119 
901 1 22.245 62.755 4.24064 
902 1 24.4956 65.0055 4.24064 
903 1 24.4956 62.755 6.49119 
904 1 22.245 65.0055 6.49119 
905 1 26.7461 62.755 4.24064 
906 1 28.9967 65.0055 4.24064 
907 1 28.9967 62.755 6.49119 
908 1 26.7461 65.0055 6.49119 
909 1 31.2472 62.755 4.24064 
910 1 33.4978 65.0055 4.24064 
911 1 33.4978 62.755 6.49119 
912 1 31.2472 65.0055 6.49119 
913 1 35.7483 62.755 4.24064 
914 1 37.9989 65.0055 4.24064 
915 1 37.9989 62.755 6.49119 
916 1 35.7483 65.0055 6.49119 
917 1 40.2494 62.755 4.24064 
918 1 42.5 65.0055 4.24064 
919 1 42.5 62.755 6.49119 
920 1 40.2494 65.0055 6.49119 
921 1 44.7506 62.755 4.24064 
922 1 47.0011 65.0055 4.24064 
923 1 47.0011 62.755 6.49119 
924 1 44.7506 65.0055 6.49119 
925 1 49.2517 62.755 4.24064 
926 1 51.5022 65.0055 4.24064 
927 1 51.5022 62.755 6.49119 
928 1 49.2517 65.0055 6.49119 
929 1 53.7528 62.755 4.24064 
930 1 56.0033 65.0055 4.24064 
931 1 56.0033 62.755 6.49119 
932 1 53.7528 65.0055 6.49119 
933 1 58.2539 62.755 4.24064 
934 1 60.5044 65.0055 4.24064 
935 1 60.5044 62.755 6.49119 
936 1 58.2539 65.0055 6.49119 
937 1 62.755 62.755 4.24064 
938 1 65.0055 65.0055 4.24064 
939 1 65.0055 62.755 6.49119 
940 1 62.755 65.0055 6.49119 
941 1 67.2561 62.755 4.24064 
942 1 69.5066 65.0055 4.24064 
943 1 69.5066 62.755 6.49119 
944 1 67.2561 65.0055 6.49119 
945 1 71.7572 62.755 4.24064 
946 1 74.0077 65.0055 4.24064 
947 1 74.0077 62.755 6.49119 
948 1 71.7572 65.0055 6.49119 
949 1 76.2583 62.755 4.24064 
950 1 78.5088 65.0055 4.24064 
951 1 78.5088 62.755 6.49119 
952 1 76.2583 65.0055 6.49119 
953 1 4.24064 67.2561 4.24064 
954 1 6.49119 69.5066 4.24064 
955 1 6.49119 67.2561 6.49119 
956 1 4.24064 69.5066 6.49119 
957 1 8.74174 67.2561 4.24064 
958 1 10.9923 69.5066 4.24064 
959 1 10.9923 67.2561 6.49119 
960 1 8.74174 69.5066 6.49119 
961 1 13.2428 67.2561 4.24064 
962 1 15.4934 69.5066 4.24064 
963 1 15.4934 67.2561 6.49119 
964 1 13.2428 69.5066 6.49119 
965 1 17.7439 67.2561 4.24064 
966 1 19.9945 69.5066 4.24064 
967 1 19.9945 67.2561 6.49119 
968 1 17.7439 69.5066 6.49119 
969 1 22.245 67.2561 4.24064 
970 1 24.4956 69.5066 4.24064 
971 1 24.4956 67.2561 6.49119 
972 1 22.245 69.5066 6.49119 
973 1 26.7461 67.2561 4.24064 