ITEM: TIMESTEP
73
ITEM: NUMBER OF ATOMS
19652
ITEM: BOX BOUNDS pp pp pp
1.5278737734160009e+01 6.9721262265839627e+01
2.6463550031084825e+01 1.2076076861227021e+02
2.4950074241666140e+01 1.1385434451604709e+02
ITEM: ATOMS id type xu yu zu 
1 1 15.2787 26.4636 24.9501 
2 1 16.88 29.237 24.9501 
3 1 16.88 31.086 27.5649 
4 1 15.2787 28.3125 27.5649 
5 1 18.4812 26.4636 24.9501 
6 1 20.0825 29.237 24.9501 
7 1 20.0825 31.086 27.5649 
8 1 18.4812 28.3125 27.5649 
9 1 21.6837 26.4636 24.9501 
10 1 23.285 29.237 24.9501 
11 1 23.285 31.086 27.5649 
12 1 21.6837 28.3125 27.5649 
13 1 24.8862 26.4636 24.9501 
14 1 26.4875 29.237 24.9501 
15 1 26.4875 31.086 27.5649 
16 1 24.8862 28.3125 27.5649 
17 1 28.0887 26.4636 24.9501 
18 1 29.69 29.237 24.9501 
19 1 29.69 31.086 27.5649 
20 1 28.0887 28.3125 27.5649 
21 1 31.2912 26.4636 24.9501 
22 1 32.8925 29.237 24.9501 
23 1 32.8925 31.086 27.5649 
24 1 31.2912 28.3125 27.5649 
25 1 34.4937 26.4636 24.9501 
26 1 36.095 29.237 24.9501 
27 1 36.095 31.086 27.5649 
28 1 34.4937 28.3125 27.5649 
29 1 37.6962 26.4636 24.9501 
30 1 39.2975 29.237 24.9501 
31 1 39.2975 31.086 27.5649 
32 1 37.6962 28.3125 27.5649 
33 1 40.8987 26.4636 24.9501 
34 1 42.5 29.237 24.9501 
35 1 42.5 31.086 27.5649 
36 1 40.8987 28.3125 27.5649 
37 1 44.1013 26.4636 24.9501 
38 1 45.7025 29.237 24.9501 
39 1 45.7025 31.086 27.5649 
40 1 44.1013 28.3125 27.5649 
41 1 47.3038 26.4636 24.9501 
42 1 48.905 29.237 24.9501 
43 1 48.905 31.086 27.5649 
44 1 47.3038 28.3125 27.5649 
45 1 50.5063 26.4636 24.9501 
46 1 52.1075 29.237 24.9501 
47 1 52.1075 31.086 27.5649 
48 1 50.5063 28.3125 27.5649 
49 1 53.7088 26.4636 24.9501 
50 1 55.31 29.237 24.9501 
51 1 55.31 31.086 27.5649 
52 1 53.7088 28.3125 27.5649 
53 1 56.9113 26.4636 24.9501 
54 1 58.5125 29.237 24.9501 
55 1 58.5125 31.086 27.5649 
56 1 56.9113 28.3125 27.5649 
57 1 60.1138 26.4636 24.9501 
58 1 61.715 29.237 24.9501 
59 1 61.715 31.086 27.5649 
60 1 60.1138 28.3125 27.5649 
61 1 63.3163 26.4636 24.9501 
62 1 64.9175 29.237 24.9501 
63 1 64.9175 31.086 27.5649 
64 1 63.3163 28.3125 27.5649 
65 1 66.5188 26.4636 24.9501 
66 1 68.12 29.237 24.9501 
67 1 68.12 31.086 27.5649 
68 1 66.5188 28.3125 27.5649 
69 1 15.2787 32.0104 24.9501 
70 1 16.88 34.7839 24.9501 
71 1 16.88 36.6329 27.5649 
72 1 15.2787 33.8594 27.5649 
73 1 18.4812 32.0104 24.9501 
74 1 20.0825 34.7839 24.9501 
75 1 20.0825 36.6329 27.5649 
76 1 18.4812 33.8594 27.5649 
77 1 21.6837 32.0104 24.9501 
78 1 23.285 34.7839 24.9501 
79 1 23.285 36.6329 27.5649 
80 1 21.6837 33.8594 27.5649 
81 1 24.8862 32.0104 24.9501 
82 1 26.4875 34.7839 24.9501 
83 1 26.4875 36.6329 27.5649 
84 1 24.8862 33.8594 27.5649 
85 1 28.0887 32.0104 24.9501 
86 1 29.69 34.7839 24.9501 
87 1 29.69 36.6329 27.5649 
88 1 28.0887 33.8594 27.5649 
89 1 31.2912 32.0104 24.9501 
90 1 32.8925 34.7839 24.9501 
91 1 32.8925 36.6329 27.5649 
92 1 31.2912 33.8594 27.5649 
93 1 34.4937 32.0104 24.9501 
94 1 36.095 34.7839 24.9501 
95 1 36.095 36.6329 27.5649 
96 1 34.4937 33.8594 27.5649 
97 1 37.6962 32.0104 24.9501 
98 1 39.2975 34.7839 24.9501 
99 1 39.2975 36.6329 27.5649 
100 1 37.6962 33.8594 27.5649 
101 1 40.8987 32.0104 24.9501 
102 1 42.5 34.7839 24.9501 
103 1 42.5 36.6329 27.5649 
104 1 40.8987 33.8594 27.5649 
105 1 44.1013 32.0104 24.9501 
106 1 45.7025 34.7839 24.9501 
107 1 45.7025 36.6329 27.5649 
108 1 44.1013 33.8594 27.5649 
109 1 47.3038 32.0104 24.9501 
110 1 48.905 34.7839 24.9501 
111 1 48.905 36.6329 27.5649 
112 1 47.3038 33.8594 27.5649 
113 1 50.5063 32.0104 24.9501 
114 1 52.1075 34.7839 24.9501 
115 1 52.1075 36.6329 27.5649 
116 1 50.5063 33.8594 27.5649 
117 1 53.7088 32.0104 24.9501 
118 1 55.31 34.7839 24.9501 
119 1 55.31 36.6329 27.5649 
120 1 53.7088 33.8594 27.5649 
121 1 56.9113 32.0104 24.9501 
122 1 58.5125 34.7839 24.9501 
123 1 58.5125 36.6329 27.5649 
124 1 56.9113 33.8594 27.5649 
125 1 60.1138 32.0104 24.9501 
126 1 61.715 34.7839 24.9501 
127 1 61.715 36.6329 27.5649 
128 1 60.1138 33.8594 27.5649 
129 1 63.3163 32.0104 24.9501 
130 1 64.9175 34.7839 24.9501 
131 1 64.9175 36.6329 27.5649 
132 1 63.3163 33.8594 27.5649 
133 1 66.5188 32.0104 24.9501 
134 1 68.12 34.7839 24.9501 
135 1 68.12 36.6329 27.5649 
136 1 66.5188 33.8594 27.5649 
137 1 15.2787 37.5573 24.9501 
138 1 16.88 40.3308 24.9501 
139 1 16.88 42.1798 27.5649 
140 1 15.2787 39.4063 27.5649 
141 1 18.4812 37.5573 24.9501 
142 1 20.0825 40.3308 24.9501 
143 1 20.0825 42.1798 27.5649 
144 1 18.4812 39.4063 27.5649 
145 1 21.6837 37.5573 24.9501 
146 1 23.285 40.3308 24.9501 
147 1 23.285 42.1798 27.5649 
148 1 21.6837 39.4063 27.5649 
149 1 24.8862 37.5573 24.9501 
150 1 26.4875 40.3308 24.9501 
151 1 26.4875 42.1798 27.5649 
152 1 24.8862 39.4063 27.5649 
153 1 28.0887 37.5573 24.9501 
154 1 29.69 40.3308 24.9501 
155 1 29.69 42.1798 27.5649 
156 1 28.0887 39.4063 27.5649 
157 1 31.2912 37.5573 24.9501 
158 1 32.8925 40.3308 24.9501 
159 1 32.8925 42.1798 27.5649 
160 1 31.2912 39.4063 27.5649 
161 1 34.4937 37.5573 24.9501 
162 1 36.095 40.3308 24.9501 
163 1 36.095 42.1798 27.5649 
164 1 34.4937 39.4063 27.5649 
165 1 37.6962 37.5573 24.9501 
166 1 39.2975 40.3308 24.9501 
167 1 39.2975 42.1798 27.5649 
168 1 37.6962 39.4063 27.5649 
169 1 40.8987 37.5573 24.9501 
170 1 42.5 40.3308 24.9501 
171 1 42.5 42.1798 27.5649 
172 1 40.8987 39.4063 27.5649 
173 1 44.1013 37.5573 24.9501 
174 1 45.7025 40.3308 24.9501 
175 1 45.7025 42.1798 27.5649 
176 1 44.1013 39.4063 27.5649 
177 1 47.3038 37.5573 24.9501 
178 1 48.905 40.3308 24.9501 
179 1 48.905 42.1798 27.5649 
180 1 47.3038 39.4063 27.5649 
181 1 50.5063 37.5573 24.9501 
182 1 52.1075 40.3308 24.9501 
183 1 52.1075 42.1798 27.5649 
184 1 50.5063 39.4063 27.5649 
185 1 53.7088 37.5573 24.9501 
186 1 55.31 40.3308 24.9501 
187 1 55.31 42.1798 27.5649 
188 1 53.7088 39.4063 27.5649 
189 1 56.9113 37.5573 24.9501 
190 1 58.5125 40.3308 24.9501 
191 1 58.5125 42.1798 27.5649 
192 1 56.9113 39.4063 27.5649 
193 1 60.1138 37.5573 24.9501 
194 1 61.715 40.3308 24.9501 
195 1 61.715 42.1798 27.5649 
196 1 60.1138 39.4063 27.5649 
197 1 63.3163 37.5573 24.9501 
198 1 64.9175 40.3308 24.9501 
199 1 64.9175 42.1798 27.5649 
200 1 63.3163 39.4063 27.5649 
201 1 66.5188 37.5573 24.9501 
202 1 68.12 40.3308 24.9501 
203 1 68.12 42.1798 27.5649 
204 1 66.5188 39.4063 27.5649 
205 1 15.2787 43.1042 24.9501 
206 1 16.88 45.8777 24.9501 
207 1 16.88 47.7266 27.5649 
208 1 15.2787 44.9532 27.5649 
209 1 18.4812 43.1042 24.9501 
210 1 20.0825 45.8777 24.9501 
211 1 20.0825 47.7266 27.5649 
212 1 18.4812 44.9532 27.5649 
213 1 21.6837 43.1042 24.9501 
214 1 23.285 45.8777 24.9501 
215 1 23.285 47.7266 27.5649 
216 1 21.6837 44.9532 27.5649 
217 1 24.8862 43.1042 24.9501 
218 1 26.4875 45.8777 24.9501 
219 1 26.4875 47.7266 27.5649 
220 1 24.8862 44.9532 27.5649 
221 1 28.0887 43.1042 24.9501 
222 1 29.69 45.8777 24.9501 
223 1 29.69 47.7266 27.5649 
224 1 28.0887 44.9532 27.5649 
225 1 31.2912 43.1042 24.9501 
226 1 32.8925 45.8777 24.9501 
227 1 32.8925 47.7266 27.5649 
228 1 31.2912 44.9532 27.5649 
229 1 34.4937 43.1042 24.9501 
230 1 36.095 45.8777 24.9501 
231 1 36.095 47.7266 27.5649 
232 1 34.4937 44.9532 27.5649 
233 1 37.6962 43.1042 24.9501 
234 1 39.2975 45.8777 24.9501 
235 1 39.2975 47.7266 27.5649 
236 1 37.6962 44.9532 27.5649 
237 1 40.8987 43.1042 24.9501 
238 1 42.5 45.8777 24.9501 
239 1 42.5 47.7266 27.5649 
240 1 40.8987 44.9532 27.5649 
241 1 44.1013 43.1042 24.9501 
242 1 45.7025 45.8777 24.9501 
243 1 45.7025 47.7266 27.5649 
244 1 44.1013 44.9532 27.5649 
245 1 47.3038 43.1042 24.9501 
246 1 48.905 45.8777 24.9501 
247 1 48.905 47.7266 27.5649 
248 1 47.3038 44.9532 27.5649 
249 1 50.5063 43.1042 24.9501 
250 1 52.1075 45.8777 24.9501 
251 1 52.1075 47.7266 27.5649 
252 1 50.5063 44.9532 27.5649 
253 1 53.7088 43.1042 24.9501 
254 1 55.31 45.8777 24.9501 
255 1 55.31 47.7266 27.5649 
256 1 53.7088 44.9532 27.5649 
257 1 56.9113 43.1042 24.9501 
258 1 58.5125 45.8777 24.9501 
259 1 58.5125 47.7266 27.5649 
260 1 56.9113 44.9532 27.5649 
261 1 60.1138 43.1042 24.9501 
262 1 61.715 45.8777 24.9501 
263 1 61.715 47.7266 27.5649 
264 1 60.1138 44.9532 27.5649 
265 1 63.3163 43.1042 24.9501 
266 1 64.9175 45.8777 24.9501 
267 1 64.9175 47.7266 27.5649 
268 1 63.3163 44.9532 27.5649 
269 1 66.5188 43.1042 24.9501 
270 1 68.12 45.8777 24.9501 
271 1 68.12 47.7266 27.5649 
272 1 66.5188 44.9532 27.5649 
273 1 15.2787 48.6511 24.9501 
274 1 16.88 51.4246 24.9501 
275 1 16.88 53.2735 27.5649 
276 1 15.2787 50.5001 27.5649 
277 1 18.4812 48.6511 24.9501 
278 1 20.0825 51.4246 24.9501 
279 1 20.0825 53.2735 27.5649 
280 1 18.4812 50.5001 27.5649 
281 1 21.6837 48.6511 24.9501 
282 1 23.285 51.4246 24.9501 
283 1 23.285 53.2735 27.5649 
284 1 21.6837 50.5001 27.5649 
285 1 24.8862 48.6511 24.9501 
286 1 26.4875 51.4246 24.9501 
287 1 26.4875 53.2735 27.5649 
288 1 24.8862 50.5001 27.5649 
289 1 28.0887 48.6511 24.9501 
290 1 29.69 51.4246 24.9501 
291 1 29.69 53.2735 27.5649 
292 1 28.0887 50.5001 27.5649 
293 1 31.2912 48.6511 24.9501 
294 1 32.8925 51.4246 24.9501 
295 1 32.8925 53.2735 27.5649 
296 1 31.2912 50.5001 27.5649 
297 1 34.4937 48.6511 24.9501 
298 1 36.095 51.4246 24.9501 
299 1 36.095 53.2735 27.5649 
300 1 34.4937 50.5001 27.5649 
301 1 37.6962 48.6511 24.9501 
302 1 39.2975 51.4246 24.9501 
303 1 39.2975 53.2735 27.5649 
304 1 37.6962 50.5001 27.5649 
305 1 40.8987 48.6511 24.9501 
306 1 42.5 51.4246 24.9501 
307 1 42.5 53.2735 27.5649 
308 1 40.8987 50.5001 27.5649 
309 1 44.1013 48.6511 24.9501 
310 1 45.7025 51.4246 24.9501 
311 1 45.7025 53.2735 27.5649 
312 1 44.1013 50.5001 27.5649 
313 1 47.3038 48.6511 24.9501 
314 1 48.905 51.4246 24.9501 
315 1 48.905 53.2735 27.5649 
316 1 47.3038 50.5001 27.5649 
317 1 50.5063 48.6511 24.9501 
318 1 52.1075 51.4246 24.9501 
319 1 52.1075 53.2735 27.5649 
320 1 50.5063 50.5001 27.5649 
321 1 53.7088 48.6511 24.9501 
322 1 55.31 51.4246 24.9501 
323 1 55.31 53.2735 27.5649 
324 1 53.7088 50.5001 27.5649 
325 1 56.9113 48.6511 24.9501 
326 1 58.5125 51.4246 24.9501 
327 1 58.5125 53.2735 27.5649 
328 1 56.9113 50.5001 27.5649 
329 1 60.1138 48.6511 24.9501 
330 1 61.715 51.4246 24.9501 
331 1 61.715 53.2735 27.5649 
332 1 60.1138 50.5001 27.5649 
333 1 63.3163 48.6511 24.9501 
334 1 64.9175 51.4246 24.9501 
335 1 64.9175 53.2735 27.5649 
336 1 63.3163 50.5001 27.5649 
337 1 66.5188 48.6511 24.9501 
338 1 68.12 51.4246 24.9501 
339 1 68.12 53.2735 27.5649 
340 1 66.5188 50.5001 27.5649 
341 1 15.2787 54.198 24.9501 
342 1 16.88 56.9715 24.9501 
343 1 16.88 58.8204 27.5649 
344 1 15.2787 56.047 27.5649 
345 1 18.4812 54.198 24.9501 
346 1 20.0825 56.9715 24.9501 
347 1 20.0825 58.8204 27.5649 
348 1 18.4812 56.047 27.5649 
349 1 21.6837 54.198 24.9501 
350 1 23.285 56.9715 24.9501 
351 1 23.285 58.8204 27.5649 
352 1 21.6837 56.047 27.5649 
353 1 24.8862 54.198 24.9501 
354 1 26.4875 56.9715 24.9501 
355 1 26.4875 58.8204 27.5649 
356 1 24.8862 56.047 27.5649 
357 1 28.0887 54.198 24.9501 
358 1 29.69 56.9715 24.9501 
359 1 29.69 58.8204 27.5649 
360 1 28.0887 56.047 27.5649 
361 1 31.2912 54.198 24.9501 
362 1 32.8925 56.9715 24.9501 
363 1 32.8925 58.8204 27.5649 
364 1 31.2912 56.047 27.5649 
365 1 34.4937 54.198 24.9501 
366 1 36.095 56.9715 24.9501 
367 1 36.095 58.8204 27.5649 
368 1 34.4937 56.047 27.5649 
369 1 37.6962 54.198 24.9501 
370 1 39.2975 56.9715 24.9501 
371 1 39.2975 58.8204 27.5649 
372 1 37.6962 56.047 27.5649 
373 1 40.8987 54.198 24.9501 
374 1 42.5 56.9715 24.9501 
375 1 42.5 58.8204 27.5649 
376 1 40.8987 56.047 27.5649 
377 1 44.1013 54.198 24.9501 
378 1 45.7025 56.9715 24.9501 
379 1 45.7025 58.8204 27.5649 
380 1 44.1013 56.047 27.5649 
381 1 47.3038 54.198 24.9501 
382 1 48.905 56.9715 24.9501 
383 1 48.905 58.8204 27.5649 
384 1 47.3038 56.047 27.5649 
385 1 50.5063 54.198 24.9501 
386 1 52.1075 56.9715 24.9501 
387 1 52.1075 58.8204 27.5649 
388 1 50.5063 56.047 27.5649 
389 1 53.7088 54.198 24.9501 
390 1 55.31 56.9715 24.9501 
391 1 55.31 58.8204 27.5649 
392 1 53.7088 56.047 27.5649 
393 1 56.9113 54.198 24.9501 
394 1 58.5125 56.9715 24.9501 
395 1 58.5125 58.8204 27.5649 
396 1 56.9113 56.047 27.5649 
397 1 60.1138 54.198 24.9501 
398 1 61.715 56.9715 24.9501 
399 1 61.715 58.8204 27.5649 
400 1 60.1138 56.047 27.5649 
401 1 63.3163 54.198 24.9501 
402 1 64.9175 56.9715 24.9501 
403 1 64.9175 58.8204 27.5649 
404 1 63.3163 56.047 27.5649 
405 1 66.5188 54.198 24.9501 
406 1 68.12 56.9715 24.9501 
407 1 68.12 58.8204 27.5649 
408 1 66.5188 56.047 27.5649 
409 1 15.2787 59.7449 24.9501 
410 1 16.88 62.5184 24.9501 
411 1 16.88 64.3673 27.5649 
412 1 15.2787 61.5939 27.5649 
413 1 18.4812 59.7449 24.9501 
414 1 20.0825 62.5184 24.9501 
415 1 20.0825 64.3673 27.5649 
416 1 18.4812 61.5939 27.5649 
417 1 21.6837 59.7449 24.9501 
418 1 23.285 62.5184 24.9501 
419 1 23.285 64.3673 27.5649 
420 1 21.6837 61.5939 27.5649 
421 1 24.8862 59.7449 24.9501 
422 1 26.4875 62.5184 24.9501 
423 1 26.4875 64.3673 27.5649 
424 1 24.8862 61.5939 27.5649 
425 1 28.0887 59.7449 24.9501 
426 1 29.69 62.5184 24.9501 
427 1 29.69 64.3673 27.5649 
428 1 28.0887 61.5939 27.5649 
429 1 31.2912 59.7449 24.9501 
430 1 32.8925 62.5184 24.9501 
431 1 32.8925 64.3673 27.5649 
432 1 31.2912 61.5939 27.5649 
433 1 34.4937 59.7449 24.9501 
434 1 36.095 62.5184 24.9501 
435 1 36.095 64.3673 27.5649 
436 1 34.4937 61.5939 27.5649 
437 1 37.6962 59.7449 24.9501 
438 1 39.2975 62.5184 24.9501 
439 1 39.2975 64.3673 27.5649 
440 1 37.6962 61.5939 27.5649 
441 1 40.8987 59.7449 24.9501 
442 1 42.5 62.5184 24.9501 
443 1 42.5 64.3673 27.5649 
444 1 40.8987 61.5939 27.5649 
445 1 44.1013 59.7449 24.9501 
446 1 45.7025 62.5184 24.9501 
447 1 45.7025 64.3673 27.5649 
448 1 44.1013 61.5939 27.5649 
449 1 47.3038 59.7449 24.9501 
450 1 48.905 62.5184 24.9501 
451 1 48.905 64.3673 27.5649 
452 1 47.3038 61.5939 27.5649 
453 1 50.5063 59.7449 24.9501 
454 1 52.1075 62.5184 24.9501 
455 1 52.1075 64.3673 27.5649 
456 1 50.5063 61.5939 27.5649 
457 1 53.7088 59.7449 24.9501 
458 1 55.31 62.5184 24.9501 
459 1 55.31 64.3673 27.5649 
460 1 53.7088 61.5939 27.5649 
461 1 56.9113 59.7449 24.9501 
462 1 58.5125 62.5184 24.9501 
463 1 58.5125 64.3673 27.5649 
464 1 56.9113 61.5939 27.5649 
465 1 60.1138 59.7449 24.9501 
466 1 61.715 62.5184 24.9501 
467 1 61.715 64.3673 27.5649 
468 1 60.1138 61.5939 27.5649 
469 1 63.3163 59.7449 24.9501 
470 1 64.9175 62.5184 24.9501 
471 1 64.9175 64.3673 27.5649 
472 1 63.3163 61.5939 27.5649 
473 1 66.5188 59.7449 24.9501 
474 1 68.12 62.5184 24.9501 
475 1 68.12 64.3673 27.5649 
476 1 66.5188 61.5939 27.5649 
477 1 15.2787 65.2918 24.9501 
478 1 16.88 68.0653 24.9501 
479 1 16.88 69.9142 27.5649 
480 1 15.2787 67.1408 27.5649 
481 1 18.4812 65.2918 24.9501 
482 1 20.0825 68.0653 24.9501 
483 1 20.0825 69.9142 27.5649 
484 1 18.4812 67.1408 27.5649 
485 1 21.6837 65.2918 24.9501 
486 1 23.285 68.0653 24.9501 
487 1 23.285 69.9142 27.5649 
488 1 21.6837 67.1408 27.5649 
489 1 24.8862 65.2918 24.9501 
490 1 26.4875 68.0653 24.9501 
491 1 26.4875 69.9142 27.5649 
492 1 24.8862 67.1408 27.5649 
493 1 28.0887 65.2918 24.9501 
494 1 29.69 68.0653 24.9501 
495 1 29.69 69.9142 27.5649 
496 1 28.0887 67.1408 27.5649 
497 1 31.2912 65.2918 24.9501 
498 1 32.8925 68.0653 24.9501 
499 1 32.8925 69.9142 27.5649 
500 1 31.2912 67.1408 27.5649 
501 1 34.4937 65.2918 24.9501 
502 1 36.095 68.0653 24.9501 
503 1 36.095 69.9142 27.5649 
504 1 34.4937 67.1408 27.5649 
505 1 37.6962 65.2918 24.9501 
506 1 39.2975 68.0653 24.9501 
507 1 39.2975 69.9142 27.5649 
508 1 37.6962 67.1408 27.5649 
509 1 40.8987 65.2918 24.9501 
510 1 42.5 68.0653 24.9501 
511 1 42.5 69.9142 27.5649 
512 1 40.8987 67.1408 27.5649 
513 1 44.1013 65.2918 24.9501 
514 1 45.7025 68.0653 24.9501 
515 1 45.7025 69.9142 27.5649 
516 1 44.1013 67.1408 27.5649 
517 1 47.3038 65.2918 24.9501 
518 1 48.905 68.0653 24.9501 
519 1 48.905 69.9142 27.5649 
520 1 47.3038 67.1408 27.5649 
521 1 50.5063 65.2918 24.9501 
522 1 52.1075 68.0653 24.9501 
523 1 52.1075 69.9142 27.5649 
524 1 50.5063 67.1408 27.5649 
525 1 53.7088 65.2918 24.9501 
526 1 55.31 68.0653 24.9501 
527 1 55.31 69.9142 27.5649 
528 1 53.7088 67.1408 27.5649 
529 1 56.9113 65.2918 24.9501 
530 1 58.5125 68.0653 24.9501 
531 1 58.5125 69.9142 27.5649 
532 1 56.9113 67.1408 27.5649 
533 1 60.1138 65.2918 24.9501 
534 1 61.715 68.0653 24.9501 
535 1 61.715 69.9142 27.5649 
536 1 60.1138 67.1408 27.5649 
537 1 63.3163 65.2918 24.9501 
538 1 64.9175 68.0653 24.9501 
539 1 64.9175 69.9142 27.5649 
540 1 63.3163 67.1408 27.5649 
541 1 66.5188 65.2918 24.9501 
542 1 68.12 68.0653 24.9501 
543 1 68.12 69.9142 27.5649 
544 1 66.5188 67.1408 27.5649 
545 1 15.2787 70.8387 24.9501 
546 1 16.88 73.6122 24.9501 
547 1 16.88 75.4611 27.5649 
548 1 15.2787 72.6877 27.5649 
549 1 18.4812 70.8387 24.9501 
550 1 20.0825 73.6122 24.9501 
551 1 20.0825 75.4611 27.5649 
552 1 18.4812 72.6877 27.5649 
553 1 21.6837 70.8387 24.9501 
554 1 23.285 73.6122 24.9501 
555 1 23.285 75.4611 27.5649 
556 1 21.6837 72.6877 27.5649 
557 1 24.8862 70.8387 24.9501 
558 1 26.4875 73.6122 24.9501 
559 1 26.4875 75.4611 27.5649 
560 1 24.8862 72.6877 27.5649 
561 1 28.0887 70.8387 24.9501 
562 1 29.69 73.6122 24.9501 
563 1 29.69 75.4611 27.5649 
564 1 28.0887 72.6877 27.5649 
565 1 31.2912 70.8387 24.9501 
566 1 32.8925 73.6122 24.9501 
567 1 32.8925 75.4611 27.5649 
568 1 31.2912 72.6877 27.5649 
569 1 34.4937 70.8387 24.9501 
570 1 36.095 73.6122 24.9501 
571 1 36.095 75.4611 27.5649 
572 1 34.4937 72.6877 27.5649 
573 1 37.6962 70.8387 24.9501 
574 1 39.2975 73.6122 24.9501 
575 1 39.2975 75.4611 27.5649 
576 1 37.6962 72.6877 27.5649 
577 1 40.8987 70.8387 24.9501 
578 1 42.5 73.6122 24.9501 
579 1 42.5 75.4611 27.5649 
580 1 40.8987 72.6877 27.5649 
581 1 44.1013 70.8387 24.9501 
582 1 45.7025 73.6122 24.9501 
583 1 45.7025 75.4611 27.5649 
584 1 44.1013 72.6877 27.5649 
585 1 47.3038 70.8387 24.9501 
586 1 48.905 73.6122 24.9501 
587 1 48.905 75.4611 27.5649 
588 1 47.3038 72.6877 27.5649 
589 1 50.5063 70.8387 24.9501 
590 1 52.1075 73.6122 24.9501 
591 1 52.1075 75.4611 27.5649 
592 1 50.5063 72.6877 27.5649 
593 1 53.7088 70.8387 24.9501 
594 1 55.31 73.6122 24.9501 
595 1 55.31 75.4611 27.5649 
596 1 53.7088 72.6877 27.5649 
597 1 56.9113 70.8387 24.9501 
598 1 58.5125 73.6122 24.9501 
599 1 58.5125 75.4611 27.5649 
600 1 56.9113 72.6877 27.5649 
601 1 60.1138 70.8387 24.9501 
602 1 61.715 73.6122 24.9501 
603 1 61.715 75.4611 27.5649 
604 1 60.1138 72.6877 27.5649 
605 1 63.3163 70.8387 24.9501 
606 1 64.9175 73.6122 24.9501 
607 1 64.9175 75.4611 27.5649 
608 1 63.3163 72.6877 27.5649 
609 1 66.5188 70.8387 24.9501 
610 1 68.12 73.6122 24.9501 
611 1 68.12 75.4611 27.5649 
612 1 66.5188 72.6877 27.5649 
613 1 15.2787 76.3856 24.9501 
614 1 16.88 79.1591 24.9501 
615 1 16.88 81.008 27.5649 
616 1 15.2787 78.2346 27.5649 
617 1 18.4812 76.3856 24.9501 
618 1 20.0825 79.1591 24.9501 
619 1 20.0825 81.008 27.5649 
620 1 18.4812 78.2346 27.5649 
621 1 21.6837 76.3856 24.9501 
622 1 23.285 79.1591 24.9501 
623 1 23.285 81.008 27.5649 
624 1 21.6837 78.2346 27.5649 
625 1 24.8862 76.3856 24.9501 
626 1 26.4875 79.1591 24.9501 
627 1 26.4875 81.008 27.5649 
628 1 24.8862 78.2346 27.5649 
629 1 28.0887 76.3856 24.9501 
630 1 29.69 79.1591 24.9501 
631 1 29.69 81.008 27.5649 
632 1 28.0887 78.2346 27.5649 
633 1 31.2912 76.3856 24.9501 
634 1 32.8925 79.1591 24.9501 
635 1 32.8925 81.008 27.5649 
636 1 31.2912 78.2346 27.5649 
637 1 34.4937 76.3856 24.9501 
638 1 36.095 79.1591 24.9501 
639 1 36.095 81.008 27.5649 
640 1 34.4937 78.2346 27.5649 
641 1 37.6962 76.3856 24.9501 
642 1 39.2975 79.1591 24.9501 
643 1 39.2975 81.008 27.5649 
644 1 37.6962 78.2346 27.5649 
645 1 40.8987 76.3856 24.9501 
646 1 42.5 79.1591 24.9501 
647 1 42.5 81.008 27.5649 
648 1 40.8987 78.2346 27.5649 
649 1 44.1013 76.3856 24.9501 
650 1 45.7025 79.1591 24.9501 
651 1 45.7025 81.008 27.5649 
652 1 44.1013 78.2346 27.5649 
653 1 47.3038 76.3856 24.9501 
654 1 48.905 79.1591 24.9501 
655 1 48.905 81.008 27.5649 
656 1 47.3038 78.2346 27.5649 
657 1 50.5063 76.3856 24.9501 
658 1 52.1075 79.1591 24.9501 
659 1 52.1075 81.008 27.5649 
660 1 50.5063 78.2346 27.5649 
661 1 53.7088 76.3856 24.9501 
662 1 55.31 79.1591 24.9501 
663 1 55.31 81.008 27.5649 
664 1 53.7088 78.2346 27.5649 
665 1 56.9113 76.3856 24.9501 
666 1 58.5125 79.1591 24.9501 
667 1 58.5125 81.008 27.5649 
668 1 56.9113 78.2346 27.5649 
669 1 60.1138 76.3856 24.9501 
670 1 61.715 79.1591 24.9501 
671 1 61.715 81.008 27.5649 
672 1 60.1138 78.2346 27.5649 
673 1 63.3163 76.3856 24.9501 
674 1 64.9175 79.1591 24.9501 
675 1 64.9175 81.008 27.5649 
676 1 63.3163 78.2346 27.5649 
677 1 66.5188 76.3856 24.9501 
678 1 68.12 79.1591 24.9501 
679 1 68.12 81.008 27.5649 
680 1 66.5188 78.2346 27.5649 
681 1 15.2787 81.9325 24.9501 
682 1 16.88 84.7059 24.9501 
683 1 16.88 86.5549 27.5649 
684 1 15.2787 83.7815 27.5649 
685 1 18.4812 81.9325 24.9501 
686 1 20.0825 84.7059 24.9501 
687 1 20.0825 86.5549 27.5649 
688 1 18.4812 83.7815 27.5649 
689 1 21.6837 81.9325 24.9501 
690 1 23.285 84.7059 24.9501 
691 1 23.285 86.5549 27.5649 
692 1 21.6837 83.7815 27.5649 
693 1 24.8862 81.9325 24.9501 
694 1 26.4875 84.7059 24.9501 
695 1 26.4875 86.5549 27.5649 
696 1 24.8862 83.7815 27.5649 
697 1 28.0887 81.9325 24.9501 
698 1 29.69 84.7059 24.9501 
699 1 29.69 86.5549 27.5649 
700 1 28.0887 83.7815 27.5649 
701 1 31.2912 81.9325 24.9501 
702 1 32.8925 84.7059 24.9501 
703 1 32.8925 86.5549 27.5649 
704 1 31.2912 83.7815 27.5649 
705 1 34.4937 81.9325 24.9501 
706 1 36.095 84.7059 24.9501 
707 1 36.095 86.5549 27.5649 
708 1 34.4937 83.7815 27.5649 
709 1 37.6962 81.9325 24.9501 
710 1 39.2975 84.7059 24.9501 
711 1 39.2975 86.5549 27.5649 
712 1 37.6962 83.7815 27.5649 
713 1 40.8987 81.9325 24.9501 
714 1 42.5 84.7059 24.9501 
715 1 42.5 86.5549 27.5649 
716 1 40.8987 83.7815 27.5649 
717 1 44.1013 81.9325 24.9501 
718 1 45.7025 84.7059 24.9501 
719 1 45.7025 86.5549 27.5649 
720 1 44.1013 83.7815 27.5649 
721 1 47.3038 81.9325 24.9501 
722 1 48.905 84.7059 24.9501 
723 1 48.905 86.5549 27.5649 
724 1 47.3038 83.7815 27.5649 
725 1 50.5063 81.9325 24.9501 
726 1 52.1075 84.7059 24.9501 
727 1 52.1075 86.5549 27.5649 
728 1 50.5063 83.7815 27.5649 
729 1 53.7088 81.9325 24.9501 
730 1 55.31 84.7059 24.9501 
731 1 55.31 86.5549 27.5649 
732 1 53.7088 83.7815 27.5649 
733 1 56.9113 81.9325 24.9501 
734 1 58.5125 84.7059 24.9501 
735 1 58.5125 86.5549 27.5649 
736 1 56.9113 83.7815 27.5649 
737 1 60.1138 81.9325 24.9501 
738 1 61.715 84.7059 24.9501 
739 1 61.715 86.5549 27.5649 
740 1 60.1138 83.7815 27.5649 
741 1 63.3163 81.9325 24.9501 
742 1 64.9175 84.7059 24.9501 
743 1 64.9175 86.5549 27.5649 
744 1 63.3163 83.7815 27.5649 
745 1 66.5188 81.9325 24.9501 
746 1 68.12 84.7059 24.9501 
747 1 68.12 86.5549 27.5649 
748 1 66.5188 83.7815 27.5649 
749 1 15.2787 87.4794 24.9501 
750 1 16.88 90.2528 24.9501 
751 1 16.88 92.1018 27.5649 
752 1 15.2787 89.3284 27.5649 
753 1 18.4812 87.4794 24.9501 
754 1 20.0825 90.2528 24.9501 
755 1 20.0825 92.1018 27.5649 
756 1 18.4812 89.3284 27.5649 
757 1 21.6837 87.4794 24.9501 
758 1 23.285 90.2528 24.9501 
759 1 23.285 92.1018 27.5649 
760 1 21.6837 89.3284 27.5649 
761 1 24.8862 87.4794 24.9501 
762 1 26.4875 90.2528 24.9501 
763 1 26.4875 92.1018 27.5649 
764 1 24.8862 89.3284 27.5649 
765 1 28.0887 87.4794 24.9501 
766 1 29.69 90.2528 24.9501 
767 1 29.69 92.1018 27.5649 
768 1 28.0887 89.3284 27.5649 
769 1 31.2912 87.4794 24.9501 
770 1 32.8925 90.2528 24.9501 
771 1 32.8925 92.1018 27.5649 
772 1 31.2912 89.3284 27.5649 
773 1 34.4937 87.4794 24.9501 
774 1 36.095 90.2528 24.9501 
775 1 36.095 92.1018 27.5649 
776 1 34.4937 89.3284 27.5649 
777 1 37.6962 87.4794 24.9501 
778 1 39.2975 90.2528 24.9501 
779 1 39.2975 92.1018 27.5649 
780 1 37.6962 89.3284 27.5649 
781 1 40.8987 87.4794 24.9501 
782 1 42.5 90.2528 24.9501 
783 1 42.5 92.1018 27.5649 
784 1 40.8987 89.3284 27.5649 
785 1 44.1013 87.4794 24.9501 
786 1 45.7025 90.2528 24.9501 
787 1 45.7025 92.1018 27.5649 
788 1 44.1013 89.3284 27.5649 
789 1 47.3038 87.4794 24.9501 
790 1 48.905 90.2528 24.9501 
791 1 48.905 92.1018 27.5649 
792 1 47.3038 89.3284 27.5649 
793 1 50.5063 87.4794 24.9501 
794 1 52.1075 90.2528 24.9501 
795 1 52.1075 92.1018 27.5649 
796 1 50.5063 89.3284 27.5649 
797 1 53.7088 87.4794 24.9501 
798 1 55.31 90.2528 24.9501 
799 1 55.31 92.1018 27.5649 
800 1 53.7088 89.3284 27.5649 
801 1 56.9113 87.4794 24.9501 
802 1 58.5125 90.2528 24.9501 
803 1 58.5125 92.1018 27.5649 
804 1 56.9113 89.3284 27.5649 
805 1 60.1138 87.4794 24.9501 
806 1 61.715 90.2528 24.9501 
807 1 61.715 92.1018 27.5649 
808 1 60.1138 89.3284 27.5649 
809 1 63.3163 87.4794 24.9501 
810 1 64.9175 90.2528 24.9501 
811 1 64.9175 92.1018 27.5649 
812 1 63.3163 89.3284 27.5649 
813 1 66.5188 87.4794 24.9501 
814 1 68.12 90.2528 24.9501 
815 1 68.12 92.1018 27.5649 
816 1 66.5188 89.3284 27.5649 
817 1 15.2787 93.0263 24.9501 
818 1 16.88 95.7997 24.9501 
819 1 16.88 97.6487 27.5649 
820 1 15.2787 94.8753 27.5649 
821 1 18.4812 93.0263 24.9501 
822 1 20.0825 95.7997 24.9501 
823 1 20.0825 97.6487 27.5649 
824 1 18.4812 94.8753 27.5649 
825 1 21.6837 93.0263 24.9501 
826 1 23.285 95.7997 24.9501 
827 1 23.285 97.6487 27.5649 
828 1 21.6837 94.8753 27.5649 
829 1 24.8862 93.0263 24.9501 
830 1 26.4875 95.7997 24.9501 
831 1 26.4875 97.6487 27.5649 
832 1 24.8862 94.8753 27.5649 
833 1 28.0887 93.0263 24.9501 
834 1 29.69 95.7997 24.9501 
835 1 29.69 97.6487 27.5649 
836 1 28.0887 94.8753 27.5649 
837 1 31.2912 93.0263 24.9501 
838 1 32.8925 95.7997 24.9501 
839 1 32.8925 97.6487 27.5649 
840 1 31.2912 94.8753 27.5649 
841 1 34.4937 93.0263 24.9501 
842 1 36.095 95.7997 24.9501 
843 1 36.095 97.6487 27.5649 
844 1 34.4937 94.8753 27.5649 
845 1 37.6962 93.0263 24.9501 
846 1 39.2975 95.7997 24.9501 
847 1 39.2975 97.6487 27.5649 
848 1 37.6962 94.8753 27.5649 
849 1 40.8987 93.0263 24.9501 
850 1 42.5 95.7997 24.9501 
851 1 42.5 97.6487 27.5649 
852 1 40.8987 94.8753 27.5649 
853 1 44.1013 93.0263 24.9501 
854 1 45.7025 95.7997 24.9501 
855 1 45.7025 97.6487 27.5649 
856 1 44.1013 94.8753 27.5649 
857 1 47.3038 93.0263 24.9501 
858 1 48.905 95.7997 24.9501 
859 1 48.905 97.6487 27.5649 
860 1 47.3038 94.8753 27.5649 
861 1 50.5063 93.0263 24.9501 
862 1 52.1075 95.7997 24.9501 
863 1 52.1075 97.6487 27.5649 
864 1 50.5063 94.8753 27.5649 
865 1 53.7088 93.0263 24.9501 
866 1 55.31 95.7997 24.9501 
867 1 55.31 97.6487 27.5649 
868 1 53.7088 94.8753 27.5649 
869 1 56.9113 93.0263 24.9501 
870 1 58.5125 95.7997 24.9501 
871 1 58.5125 97.6487 27.5649 
872 1 56.9113 94.8753 27.5649 
873 1 60.1138 93.0263 24.9501 
874 1 61.715 95.7997 24.9501 
875 1 61.715 97.6487 27.5649 
876 1 60.1138 94.8753 27.5649 
877 1 63.3163 93.0263 24.9501 
878 1 64.9175 95.7997 24.9501 
879 1 64.9175 97.6487 27.5649 
880 1 63.3163 94.8753 27.5649 
881 1 66.5188 93.0263 24.9501 
882 1 68.12 95.7997 24.9501 
883 1 68.12 97.6487 27.5649 
884 1 66.5188 94.8753 27.5649 
885 1 15.2787 98.5732 24.9501 
886 1 16.88 101.347 24.9501 
887 1 16.88 103.196 27.5649 
888 1 15.2787 100.422 27.5649 
889 1 18.4812 98.5732 24.9501 
890 1 20.0825 101.347 24.9501 
891 1 20.0825 103.196 27.5649 
892 1 18.4812 100.422 27.5649 
893 1 21.6837 98.5732 24.9501 
894 1 23.285 101.347 24.9501 
895 1 23.285 103.196 27.5649 
896 1 21.6837 100.422 27.5649 
897 1 24.8862 98.5732 24.9501 
898 1 26.4875 101.347 24.9501 
899 1 26.4875 103.196 27.5649 
900 1 24.8862 100.422 27.5649 
901 1 28.0887 98.5732 24.9501 
902 1 29.69 101.347 24.9501 
903 1 29.69 103.196 27.5649 
904 1 28.0887 100.422 27.5649 
905 1 31.2912 98.5732 24.9501 
906 1 32.8925 101.347 24.9501 
907 1 32.8925 103.196 27.5649 
908 1 31.2912 100.422 27.5649 
909 1 34.4937 98.5732 24.9501 
910 1 36.095 101.347 24.9501 
911 1 36.095 103.196 27.5649 
912 1 34.4937 100.422 27.5649 
913 1 37.6962 98.5732 24.9501 
914 1 39.2975 101.347 24.9501 
915 1 39.2975 103.196 27.5649 
916 1 37.6962 100.422 27.5649 
917 1 40.8987 98.5732 24.9501 
918 1 42.5 101.347 24.9501 
919 1 42.5 103.196 27.5649 
920 1 40.8987 100.422 27.5649 
921 1 44.1013 98.5732 24.9501 
922 1 45.7025 101.347 24.9501 
923 1 45.7025 103.196 27.5649 
924 1 44.1013 100.422 27.5649 
925 1 47.3038 98.5732 24.9501 
926 1 48.905 101.347 24.9501 
927 1 48.905 103.196 27.5649 
928 1 47.3038 100.422 27.5649 
929 1 50.5063 98.5732 24.9501 
930 1 52.1075 101.347 24.9501 
931 1 52.1075 103.196 27.5649 
932 1 50.5063 100.422 27.5649 
933 1 53.7088 98.5732 24.9501 
934 1 55.31 101.347 24.9501 
935 1 55.31 103.196 27.5649 
936 1 53.7088 100.422 27.5649 
937 1 56.9113 98.5732 24.9501 
938 1 58.5125 101.347 24.9501 
939 1 58.5125 103.196 27.5649 
940 1 56.9113 100.422 27.5649 
941 1 60.1138 98.5732 24.9501 
942 1 61.715 101.347 24.9501 
943 1 61.715 103.196 27.5649 
944 1 60.1138 100.422 27.5649 
945 1 63.3163 98.5732 24.9501 
946 1 64.9175 101.347 24.9501 
947 1 64.9175 103.196 27.5649 
948 1 63.3163 100.422 27.5649 
949 1 66.5188 98.5732 24.9501 
950 1 68.12 101.347 24.9501 
951 1 68.12 103.196 27.5649 
952 1 66.5188 100.422 27.5649 
953 1 15.2787 104.12 24.9501 
954 1 16.88 106.894 24.9501 
955 1 16.88 108.742 27.5649 
956 1 15.2787 105.969 27.5649 
957 1 18.4812 104.12 24.9501 
958 1 20.0825 106.894 24.9501 
959 1 20.0825 108.742 27.5649 
960 1 18.4812 105.969 27.5649 
961 1 21.6837 104.12 24.9501 
962 1 23.285 106.894 24.9501 
963 1 23.285 108.742 27.5649 
964 1 21.6837 105.969 27.5649 
965 1 24.8862 104.12 24.9501 
966 1 26.4875 106.894 24.9501 
967 1 26.4875 108.742 27.5649 
968 1 24.8862 105.969 27.5649 
969 1 28.0887 104.12 24.9501 
970 1 29.69 106.894 24.9501 
971 1 29.69 108.742 27.5649 
972 1 28.0887 105.969 27.5649 
973 1 31.2912 104.12 24.9501 
974 1 32.8925 106.894 24.9501 
975 1 32.8925 108.742 27.5649 
976 1 31.2912 105.969 27.5649 
977 1 34.4937 104.12 24.9501 
978 1 36.095 106.894 24.9501 
979 1 36.095 108.742 27.5649 
980 1 34.4937 105.969 27.5649 