ITEM: TIMESTEP
4
ITEM: NUMBER OF ATOMS
19652
ITEM: BOX BOUNDS pp pp pp
-4.1364626840199159e-01 8.5413646268402005e+01
-4.1364626840199159e-01 8.5413646268402005e+01
-4.1364626840199159e-01 8.5413646268402005e+01
ITEM: ATOMS id type xu yu zu 
1 1 -0.413646 -0.413646 -0.413646 
2 1 2.11069 2.11069 -0.413646 
3 1 2.11069 -0.413646 2.11069 
4 1 -0.413646 2.11069 2.11069 
5 1 4.63502 -0.413646 -0.413646 
6 1 7.15935 2.11069 -0.413646 
7 1 7.15935 -0.413646 2.11069 
8 1 4.63502 2.11069 2.11069 
9 1 9.68368 -0.413646 -0.413646 
10 1 12.208 2.11069 -0.413646 
11 1 12.208 -0.413646 2.11069 
12 1 9.68368 2.11069 2.11069 
13 1 14.7323 -0.413646 -0.413646 
14 1 17.2567 2.11069 -0.413646 
15 1 17.2567 -0.413646 2.11069 
16 1 14.7323 2.11069 2.11069 
17 1 19.781 -0.413646 -0.413646 
18 1 22.3053 2.11069 -0.413646 
19 1 22.3053 -0.413646 2.11069 
20 1 19.781 2.11069 2.11069 
21 1 24.8297 -0.413646 -0.413646 
22 1 27.354 2.11069 -0.413646 
23 1 27.354 -0.413646 2.11069 
24 1 24.8297 2.11069 2.11069 
25 1 29.8783 -0.413646 -0.413646 
26 1 32.4027 2.11069 -0.413646 
27 1 32.4027 -0.413646 2.11069 
28 1 29.8783 2.11069 2.11069 
29 1 34.927 -0.413646 -0.413646 
30 1 37.4513 2.11069 -0.413646 
31 1 37.4513 -0.413646 2.11069 
32 1 34.927 2.11069 2.11069 
33 1 39.9757 -0.413646 -0.413646 
34 1 42.5 2.11069 -0.413646 
35 1 42.5 -0.413646 2.11069 
36 1 39.9757 2.11069 2.11069 
37 1 45.0243 -0.413646 -0.413646 
38 1 47.5487 2.11069 -0.413646 
39 1 47.5487 -0.413646 2.11069 
40 1 45.0243 2.11069 2.11069 
41 1 50.073 -0.413646 -0.413646 
42 1 52.5973 2.11069 -0.413646 
43 1 52.5973 -0.413646 2.11069 
44 1 50.073 2.11069 2.11069 
45 1 55.1217 -0.413646 -0.413646 
46 1 57.646 2.11069 -0.413646 
47 1 57.646 -0.413646 2.11069 
48 1 55.1217 2.11069 2.11069 
49 1 60.1703 -0.413646 -0.413646 
50 1 62.6947 2.11069 -0.413646 
51 1 62.6947 -0.413646 2.11069 
52 1 60.1703 2.11069 2.11069 
53 1 65.219 -0.413646 -0.413646 
54 1 67.7433 2.11069 -0.413646 
55 1 67.7433 -0.413646 2.11069 
56 1 65.219 2.11069 2.11069 
57 1 70.2677 -0.413646 -0.413646 
58 1 72.792 2.11069 -0.413646 
59 1 72.792 -0.413646 2.11069 
60 1 70.2677 2.11069 2.11069 
61 1 75.3163 -0.413646 -0.413646 
62 1 77.8406 2.11069 -0.413646 
63 1 77.8406 -0.413646 2.11069 
64 1 75.3163 2.11069 2.11069 
65 1 80.365 -0.413646 -0.413646 
66 1 82.8893 2.11069 -0.413646 
67 1 82.8893 -0.413646 2.11069 
68 1 80.365 2.11069 2.11069 
69 1 -0.413646 4.63502 -0.413646 
70 1 2.11069 7.15935 -0.413646 
71 1 2.11069 4.63502 2.11069 
72 1 -0.413646 7.15935 2.11069 
73 1 4.63502 4.63502 -0.413646 
74 1 7.15935 7.15935 -0.413646 
75 1 7.15935 4.63502 2.11069 
76 1 4.63502 7.15935 2.11069 
77 1 9.68368 4.63502 -0.413646 
78 1 12.208 7.15935 -0.413646 
79 1 12.208 4.63502 2.11069 
80 1 9.68368 7.15935 2.11069 
81 1 14.7323 4.63502 -0.413646 
82 1 17.2567 7.15935 -0.413646 
83 1 17.2567 4.63502 2.11069 
84 1 14.7323 7.15935 2.11069 
85 1 19.781 4.63502 -0.413646 
86 1 22.3053 7.15935 -0.413646 
87 1 22.3053 4.63502 2.11069 
88 1 19.781 7.15935 2.11069 
89 1 24.8297 4.63502 -0.413646 
90 1 27.354 7.15935 -0.413646 
91 1 27.354 4.63502 2.11069 
92 1 24.8297 7.15935 2.11069 
93 1 29.8783 4.63502 -0.413646 
94 1 32.4027 7.15935 -0.413646 
95 1 32.4027 4.63502 2.11069 
96 1 29.8783 7.15935 2.11069 
97 1 34.927 4.63502 -0.413646 
98 1 37.4513 7.15935 -0.413646 
99 1 37.4513 4.63502 2.11069 
100 1 34.927 7.15935 2.11069 
101 1 39.9757 4.63502 -0.413646 
102 1 42.5 7.15935 -0.413646 
103 1 42.5 4.63502 2.11069 
104 1 39.9757 7.15935 2.11069 
105 1 45.0243 4.63502 -0.413646 
106 1 47.5487 7.15935 -0.413646 
107 1 47.5487 4.63502 2.11069 
108 1 45.0243 7.15935 2.11069 
109 1 50.073 4.63502 -0.413646 
110 1 52.5973 7.15935 -0.413646 
111 1 52.5973 4.63502 2.11069 
112 1 50.073 7.15935 2.11069 
113 1 55.1217 4.63502 -0.413646 
114 1 57.646 7.15935 -0.413646 
115 1 57.646 4.63502 2.11069 
116 1 55.1217 7.15935 2.11069 
117 1 60.1703 4.63502 -0.413646 
118 1 62.6947 7.15935 -0.413646 
119 1 62.6947 4.63502 2.11069 
120 1 60.1703 7.15935 2.11069 
121 1 65.219 4.63502 -0.413646 
122 1 67.7433 7.15935 -0.413646 
123 1 67.7433 4.63502 2.11069 
124 1 65.219 7.15935 2.11069 
125 1 70.2677 4.63502 -0.413646 
126 1 72.792 7.15935 -0.413646 
127 1 72.792 4.63502 2.11069 
128 1 70.2677 7.15935 2.11069 
129 1 75.3163 4.63502 -0.413646 
130 1 77.8406 7.15935 -0.413646 
131 1 77.8406 4.63502 2.11069 
132 1 75.3163 7.15935 2.11069 
133 1 80.365 4.63502 -0.413646 
134 1 82.8893 7.15935 -0.413646 
135 1 82.8893 4.63502 2.11069 
136 1 80.365 7.15935 2.11069 
137 1 -0.413646 9.68368 -0.413646 
138 1 2.11069 12.208 -0.413646 
139 1 2.11069 9.68368 2.11069 
140 1 -0.413646 12.208 2.11069 
141 1 4.63502 9.68368 -0.413646 
142 1 7.15935 12.208 -0.413646 
143 1 7.15935 9.68368 2.11069 
144 1 4.63502 12.208 2.11069 
145 1 9.68368 9.68368 -0.413646 
146 1 12.208 12.208 -0.413646 
147 1 12.208 9.68368 2.11069 
148 1 9.68368 12.208 2.11069 
149 1 14.7323 9.68368 -0.413646 
150 1 17.2567 12.208 -0.413646 
151 1 17.2567 9.68368 2.11069 
152 1 14.7323 12.208 2.11069 
153 1 19.781 9.68368 -0.413646 
154 1 22.3053 12.208 -0.413646 
155 1 22.3053 9.68368 2.11069 
156 1 19.781 12.208 2.11069 
157 1 24.8297 9.68368 -0.413646 
158 1 27.354 12.208 -0.413646 
159 1 27.354 9.68368 2.11069 
160 1 24.8297 12.208 2.11069 
161 1 29.8783 9.68368 -0.413646 
162 1 32.4027 12.208 -0.413646 
163 1 32.4027 9.68368 2.11069 
164 1 29.8783 12.208 2.11069 
165 1 34.927 9.68368 -0.413646 
166 1 37.4513 12.208 -0.413646 
167 1 37.4513 9.68368 2.11069 
168 1 34.927 12.208 2.11069 
169 1 39.9757 9.68368 -0.413646 
170 1 42.5 12.208 -0.413646 
171 1 42.5 9.68368 2.11069 
172 1 39.9757 12.208 2.11069 
173 1 45.0243 9.68368 -0.413646 
174 1 47.5487 12.208 -0.413646 
175 1 47.5487 9.68368 2.11069 
176 1 45.0243 12.208 2.11069 
177 1 50.073 9.68368 -0.413646 
178 1 52.5973 12.208 -0.413646 
179 1 52.5973 9.68368 2.11069 
180 1 50.073 12.208 2.11069 
181 1 55.1217 9.68368 -0.413646 
182 1 57.646 12.208 -0.413646 
183 1 57.646 9.68368 2.11069 
184 1 55.1217 12.208 2.11069 
185 1 60.1703 9.68368 -0.413646 
186 1 62.6947 12.208 -0.413646 
187 1 62.6947 9.68368 2.11069 
188 1 60.1703 12.208 2.11069 
189 1 65.219 9.68368 -0.413646 
190 1 67.7433 12.208 -0.413646 
191 1 67.7433 9.68368 2.11069 
192 1 65.219 12.208 2.11069 
193 1 70.2677 9.68368 -0.413646 
194 1 72.792 12.208 -0.413646 
195 1 72.792 9.68368 2.11069 
196 1 70.2677 12.208 2.11069 
197 1 75.3163 9.68368 -0.413646 
198 1 77.8406 12.208 -0.413646 
199 1 77.8406 9.68368 2.11069 
200 1 75.3163 12.208 2.11069 
201 1 80.365 9.68368 -0.413646 
202 1 82.8893 12.208 -0.413646 
203 1 82.8893 9.68368 2.11069 
204 1 80.365 12.208 2.11069 
205 1 -0.413646 14.7323 -0.413646 
206 1 2.11069 17.2567 -0.413646 
207 1 2.11069 14.7323 2.11069 
208 1 -0.413646 17.2567 2.11069 
209 1 4.63502 14.7323 -0.413646 
210 1 7.15935 17.2567 -0.413646 
211 1 7.15935 14.7323 2.11069 
212 1 4.63502 17.2567 2.11069 
213 1 9.68368 14.7323 -0.413646 
214 1 12.208 17.2567 -0.413646 
215 1 12.208 14.7323 2.11069 
216 1 9.68368 17.2567 2.11069 
217 1 14.7323 14.7323 -0.413646 
218 1 17.2567 17.2567 -0.413646 
219 1 17.2567 14.7323 2.11069 
220 1 14.7323 17.2567 2.11069 
221 1 19.781 14.7323 -0.413646 
222 1 22.3053 17.2567 -0.413646 
223 1 22.3053 14.7323 2.11069 
224 1 19.781 17.2567 2.11069 
225 1 24.8297 14.7323 -0.413646 
226 1 27.354 17.2567 -0.413646 
227 1 27.354 14.7323 2.11069 
228 1 24.8297 17.2567 2.11069 
229 1 29.8783 14.7323 -0.413646 
230 1 32.4027 17.2567 -0.413646 
231 1 32.4027 14.7323 2.11069 
232 1 29.8783 17.2567 2.11069 
233 1 34.927 14.7323 -0.413646 
234 1 37.4513 17.2567 -0.413646 
235 1 37.4513 14.7323 2.11069 
236 1 34.927 17.2567 2.11069 
237 1 39.9757 14.7323 -0.413646 
238 1 42.5 17.2567 -0.413646 
239 1 42.5 14.7323 2.11069 
240 1 39.9757 17.2567 2.11069 
241 1 45.0243 14.7323 -0.413646 
242 1 47.5487 17.2567 -0.413646 
243 1 47.5487 14.7323 2.11069 
244 1 45.0243 17.2567 2.11069 
245 1 50.073 14.7323 -0.413646 
246 1 52.5973 17.2567 -0.413646 
247 1 52.5973 14.7323 2.11069 
248 1 50.073 17.2567 2.11069 
249 1 55.1217 14.7323 -0.413646 
250 1 57.646 17.2567 -0.413646 
251 1 57.646 14.7323 2.11069 
252 1 55.1217 17.2567 2.11069 
253 1 60.1703 14.7323 -0.413646 
254 1 62.6947 17.2567 -0.413646 
255 1 62.6947 14.7323 2.11069 
256 1 60.1703 17.2567 2.11069 
257 1 65.219 14.7323 -0.413646 
258 1 67.7433 17.2567 -0.413646 
259 1 67.7433 14.7323 2.11069 
260 1 65.219 17.2567 2.11069 
261 1 70.2677 14.7323 -0.413646 
262 1 72.792 17.2567 -0.413646 
263 1 72.792 14.7323 2.11069 
264 1 70.2677 17.2567 2.11069 
265 1 75.3163 14.7323 -0.413646 
266 1 77.8406 17.2567 -0.413646 
267 1 77.8406 14.7323 2.11069 
268 1 75.3163 17.2567 2.11069 
269 1 80.365 14.7323 -0.413646 
270 1 82.8893 17.2567 -0.413646 
271 1 82.8893 14.7323 2.11069 
272 1 80.365 17.2567 2.11069 
273 1 -0.413646 19.781 -0.413646 
274 1 2.11069 22.3053 -0.413646 
275 1 2.11069 19.781 2.11069 
276 1 -0.413646 22.3053 2.11069 
277 1 4.63502 19.781 -0.413646 
278 1 7.15935 22.3053 -0.413646 
279 1 7.15935 19.781 2.11069 
280 1 4.63502 22.3053 2.11069 
281 1 9.68368 19.781 -0.413646 
282 1 12.208 22.3053 -0.413646 
283 1 12.208 19.781 2.11069 
284 1 9.68368 22.3053 2.11069 
285 1 14.7323 19.781 -0.413646 
286 1 17.2567 22.3053 -0.413646 
287 1 17.2567 19.781 2.11069 
288 1 14.7323 22.3053 2.11069 
289 1 19.781 19.781 -0.413646 
290 1 22.3053 22.3053 -0.413646 
291 1 22.3053 19.781 2.11069 
292 1 19.781 22.3053 2.11069 
293 1 24.8297 19.781 -0.413646 
294 1 27.354 22.3053 -0.413646 
295 1 27.354 19.781 2.11069 
296 1 24.8297 22.3053 2.11069 
297 1 29.8783 19.781 -0.413646 
298 1 32.4027 22.3053 -0.413646 
299 1 32.4027 19.781 2.11069 
300 1 29.8783 22.3053 2.11069 
301 1 34.927 19.781 -0.413646 
302 1 37.4513 22.3053 -0.413646 
303 1 37.4513 19.781 2.11069 
304 1 34.927 22.3053 2.11069 
305 1 39.9757 19.781 -0.413646 
306 1 42.5 22.3053 -0.413646 
307 1 42.5 19.781 2.11069 
308 1 39.9757 22.3053 2.11069 
309 1 45.0243 19.781 -0.413646 
310 1 47.5487 22.3053 -0.413646 
311 1 47.5487 19.781 2.11069 
312 1 45.0243 22.3053 2.11069 
313 1 50.073 19.781 -0.413646 
314 1 52.5973 22.3053 -0.413646 
315 1 52.5973 19.781 2.11069 
316 1 50.073 22.3053 2.11069 
317 1 55.1217 19.781 -0.413646 
318 1 57.646 22.3053 -0.413646 
319 1 57.646 19.781 2.11069 
320 1 55.1217 22.3053 2.11069 
321 1 60.1703 19.781 -0.413646 
322 1 62.6947 22.3053 -0.413646 
323 1 62.6947 19.781 2.11069 
324 1 60.1703 22.3053 2.11069 
325 1 65.219 19.781 -0.413646 
326 1 67.7433 22.3053 -0.413646 
327 1 67.7433 19.781 2.11069 
328 1 65.219 22.3053 2.11069 
329 1 70.2677 19.781 -0.413646 
330 1 72.792 22.3053 -0.413646 
331 1 72.792 19.781 2.11069 
332 1 70.2677 22.3053 2.11069 
333 1 75.3163 19.781 -0.413646 
334 1 77.8406 22.3053 -0.413646 
335 1 77.8406 19.781 2.11069 
336 1 75.3163 22.3053 2.11069 
337 1 80.365 19.781 -0.413646 
338 1 82.8893 22.3053 -0.413646 
339 1 82.8893 19.781 2.11069 
340 1 80.365 22.3053 2.11069 
341 1 -0.413646 24.8297 -0.413646 
342 1 2.11069 27.354 -0.413646 
343 1 2.11069 24.8297 2.11069 
344 1 -0.413646 27.354 2.11069 
345 1 4.63502 24.8297 -0.413646 
346 1 7.15935 27.354 -0.413646 
347 1 7.15935 24.8297 2.11069 
348 1 4.63502 27.354 2.11069 
349 1 9.68368 24.8297 -0.413646 
350 1 12.208 27.354 -0.413646 
351 1 12.208 24.8297 2.11069 
352 1 9.68368 27.354 2.11069 
353 1 14.7323 24.8297 -0.413646 
354 1 17.2567 27.354 -0.413646 
355 1 17.2567 24.8297 2.11069 
356 1 14.7323 27.354 2.11069 
357 1 19.781 24.8297 -0.413646 
358 1 22.3053 27.354 -0.413646 
359 1 22.3053 24.8297 2.11069 
360 1 19.781 27.354 2.11069 
361 1 24.8297 24.8297 -0.413646 
362 1 27.354 27.354 -0.413646 
363 1 27.354 24.8297 2.11069 
364 1 24.8297 27.354 2.11069 
365 1 29.8783 24.8297 -0.413646 
366 1 32.4027 27.354 -0.413646 
367 1 32.4027 24.8297 2.11069 
368 1 29.8783 27.354 2.11069 
369 1 34.927 24.8297 -0.413646 
370 1 37.4513 27.354 -0.413646 
371 1 37.4513 24.8297 2.11069 
372 1 34.927 27.354 2.11069 
373 1 39.9757 24.8297 -0.413646 
374 1 42.5 27.354 -0.413646 
375 1 42.5 24.8297 2.11069 
376 1 39.9757 27.354 2.11069 
377 1 45.0243 24.8297 -0.413646 
378 1 47.5487 27.354 -0.413646 
379 1 47.5487 24.8297 2.11069 
380 1 45.0243 27.354 2.11069 
381 1 50.073 24.8297 -0.413646 
382 1 52.5973 27.354 -0.413646 
383 1 52.5973 24.8297 2.11069 
384 1 50.073 27.354 2.11069 
385 1 55.1217 24.8297 -0.413646 
386 1 57.646 27.354 -0.413646 
387 1 57.646 24.8297 2.11069 
388 1 55.1217 27.354 2.11069 
389 1 60.1703 24.8297 -0.413646 
390 1 62.6947 27.354 -0.413646 
391 1 62.6947 24.8297 2.11069 
392 1 60.1703 27.354 2.11069 
393 1 65.219 24.8297 -0.413646 
394 1 67.7433 27.354 -0.413646 
395 1 67.7433 24.8297 2.11069 
396 1 65.219 27.354 2.11069 
397 1 70.2677 24.8297 -0.413646 
398 1 72.792 27.354 -0.413646 
399 1 72.792 24.8297 2.11069 
400 1 70.2677 27.354 2.11069 
401 1 75.3163 24.8297 -0.413646 
402 1 77.8406 27.354 -0.413646 
403 1 77.8406 24.8297 2.11069 
404 1 75.3163 27.354 2.11069 
405 1 80.365 24.8297 -0.413646 
406 1 82.8893 27.354 -0.413646 
407 1 82.8893 24.8297 2.11069 
408 1 80.365 27.354 2.11069 
409 1 -0.413646 29.8783 -0.413646 
410 1 2.11069 32.4027 -0.413646 
411 1 2.11069 29.8783 2.11069 
412 1 -0.413646 32.4027 2.11069 
413 1 4.63502 29.8783 -0.413646 
414 1 7.15935 32.4027 -0.413646 
415 1 7.15935 29.8783 2.11069 
416 1 4.63502 32.4027 2.11069 
417 1 9.68368 29.8783 -0.413646 
418 1 12.208 32.4027 -0.413646 
419 1 12.208 29.8783 2.11069 
420 1 9.68368 32.4027 2.11069 
421 1 14.7323 29.8783 -0.413646 
422 1 17.2567 32.4027 -0.413646 
423 1 17.2567 29.8783 2.11069 
424 1 14.7323 32.4027 2.11069 
425 1 19.781 29.8783 -0.413646 
426 1 22.3053 32.4027 -0.413646 
427 1 22.3053 29.8783 2.11069 
428 1 19.781 32.4027 2.11069 
429 1 24.8297 29.8783 -0.413646 
430 1 27.354 32.4027 -0.413646 
431 1 27.354 29.8783 2.11069 
432 1 24.8297 32.4027 2.11069 
433 1 29.8783 29.8783 -0.413646 
434 1 32.4027 32.4027 -0.413646 
435 1 32.4027 29.8783 2.11069 
436 1 29.8783 32.4027 2.11069 
437 1 34.927 29.8783 -0.413646 
438 1 37.4513 32.4027 -0.413646 
439 1 37.4513 29.8783 2.11069 
440 1 34.927 32.4027 2.11069 
441 1 39.9757 29.8783 -0.413646 
442 1 42.5 32.4027 -0.413646 
443 1 42.5 29.8783 2.11069 
444 1 39.9757 32.4027 2.11069 
445 1 45.0243 29.8783 -0.413646 
446 1 47.5487 32.4027 -0.413646 
447 1 47.5487 29.8783 2.11069 
448 1 45.0243 32.4027 2.11069 
449 1 50.073 29.8783 -0.413646 
450 1 52.5973 32.4027 -0.413646 
451 1 52.5973 29.8783 2.11069 
452 1 50.073 32.4027 2.11069 
453 1 55.1217 29.8783 -0.413646 
454 1 57.646 32.4027 -0.413646 
455 1 57.646 29.8783 2.11069 
456 1 55.1217 32.4027 2.11069 
457 1 60.1703 29.8783 -0.413646 
458 1 62.6947 32.4027 -0.413646 
459 1 62.6947 29.8783 2.11069 
460 1 60.1703 32.4027 2.11069 
461 1 65.219 29.8783 -0.413646 
462 1 67.7433 32.4027 -0.413646 
463 1 67.7433 29.8783 2.11069 
464 1 65.219 32.4027 2.11069 
465 1 70.2677 29.8783 -0.413646 
466 1 72.792 32.4027 -0.413646 
467 1 72.792 29.8783 2.11069 
468 1 70.2677 32.4027 2.11069 
469 1 75.3163 29.8783 -0.413646 
470 1 77.8406 32.4027 -0.413646 
471 1 77.8406 29.8783 2.11069 
472 1 75.3163 32.4027 2.11069 
473 1 80.365 29.8783 -0.413646 
474 1 82.8893 32.4027 -0.413646 
475 1 82.8893 29.8783 2.11069 
476 1 80.365 32.4027 2.11069 
477 1 -0.413646 34.927 -0.413646 
478 1 2.11069 37.4513 -0.413646 
479 1 2.11069 34.927 2.11069 
480 1 -0.413646 37.4513 2.11069 
481 1 4.63502 34.927 -0.413646 
482 1 7.15935 37.4513 -0.413646 
483 1 7.15935 34.927 2.11069 
484 1 4.63502 37.4513 2.11069 
485 1 9.68368 34.927 -0.413646 
486 1 12.208 37.4513 -0.413646 
487 1 12.208 34.927 2.11069 
488 1 9.68368 37.4513 2.11069 
489 1 14.7323 34.927 -0.413646 
490 1 17.2567 37.4513 -0.413646 
491 1 17.2567 34.927 2.11069 
492 1 14.7323 37.4513 2.11069 
493 1 19.781 34.927 -0.413646 
494 1 22.3053 37.4513 -0.413646 
495 1 22.3053 34.927 2.11069 
496 1 19.781 37.4513 2.11069 
497 1 24.8297 34.927 -0.413646 
498 1 27.354 37.4513 -0.413646 
499 1 27.354 34.927 2.11069 
500 1 24.8297 37.4513 2.11069 
501 1 29.8783 34.927 -0.413646 
502 1 32.4027 37.4513 -0.413646 
503 1 32.4027 34.927 2.11069 
504 1 29.8783 37.4513 2.11069 
505 1 34.927 34.927 -0.413646 
506 1 37.4513 37.4513 -0.413646 
507 1 37.4513 34.927 2.11069 
508 1 34.927 37.4513 2.11069 
509 1 39.9757 34.927 -0.413646 
510 1 42.5 37.4513 -0.413646 
511 1 42.5 34.927 2.11069 
512 1 39.9757 37.4513 2.11069 
513 1 45.0243 34.927 -0.413646 
514 1 47.5487 37.4513 -0.413646 
515 1 47.5487 34.927 2.11069 
516 1 45.0243 37.4513 2.11069 
517 1 50.073 34.927 -0.413646 
518 1 52.5973 37.4513 -0.413646 
519 1 52.5973 34.927 2.11069 
520 1 50.073 37.4513 2.11069 
521 1 55.1217 34.927 -0.413646 
522 1 57.646 37.4513 -0.413646 
523 1 57.646 34.927 2.11069 
524 1 55.1217 37.4513 2.11069 
525 1 60.1703 34.927 -0.413646 
526 1 62.6947 37.4513 -0.413646 
527 1 62.6947 34.927 2.11069 
528 1 60.1703 37.4513 2.11069 
529 1 65.219 34.927 -0.413646 
530 1 67.7433 37.4513 -0.413646 
531 1 67.7433 34.927 2.11069 
532 1 65.219 37.4513 2.11069 
533 1 70.2677 34.927 -0.413646 
534 1 72.792 37.4513 -0.413646 
535 1 72.792 34.927 2.11069 
536 1 70.2677 37.4513 2.11069 
537 1 75.3163 34.927 -0.413646 
538 1 77.8406 37.4513 -0.413646 
539 1 77.8406 34.927 2.11069 
540 1 75.3163 37.4513 2.11069 
541 1 80.365 34.927 -0.413646 
542 1 82.8893 37.4513 -0.413646 
543 1 82.8893 34.927 2.11069 
544 1 80.365 37.4513 2.11069 
545 1 -0.413646 39.9757 -0.413646 
546 1 2.11069 42.5 -0.413646 
547 1 2.11069 39.9757 2.11069 
548 1 -0.413646 42.5 2.11069 
549 1 4.63502 39.9757 -0.413646 
550 1 7.15935 42.5 -0.413646 
551 1 7.15935 39.9757 2.11069 
552 1 4.63502 42.5 2.11069 
553 1 9.68368 39.9757 -0.413646 
554 1 12.208 42.5 -0.413646 
555 1 12.208 39.9757 2.11069 
556 1 9.68368 42.5 2.11069 
557 1 14.7323 39.9757 -0.413646 
558 1 17.2567 42.5 -0.413646 
559 1 17.2567 39.9757 2.11069 
560 1 14.7323 42.5 2.11069 
561 1 19.781 39.9757 -0.413646 
562 1 22.3053 42.5 -0.413646 
563 1 22.3053 39.9757 2.11069 
564 1 19.781 42.5 2.11069 
565 1 24.8297 39.9757 -0.413646 
566 1 27.354 42.5 -0.413646 
567 1 27.354 39.9757 2.11069 
568 1 24.8297 42.5 2.11069 
569 1 29.8783 39.9757 -0.413646 
570 1 32.4027 42.5 -0.413646 
571 1 32.4027 39.9757 2.11069 
572 1 29.8783 42.5 2.11069 
573 1 34.927 39.9757 -0.413646 
574 1 37.4513 42.5 -0.413646 
575 1 37.4513 39.9757 2.11069 
576 1 34.927 42.5 2.11069 
577 1 39.9757 39.9757 -0.413646 
578 1 42.5 42.5 -0.413646 
579 1 42.5 39.9757 2.11069 
580 1 39.9757 42.5 2.11069 
581 1 45.0243 39.9757 -0.413646 
582 1 47.5487 42.5 -0.413646 
583 1 47.5487 39.9757 2.11069 
584 1 45.0243 42.5 2.11069 
585 1 50.073 39.9757 -0.413646 
586 1 52.5973 42.5 -0.413646 
587 1 52.5973 39.9757 2.11069 
588 1 50.073 42.5 2.11069 
589 1 55.1217 39.9757 -0.413646 
590 1 57.646 42.5 -0.413646 
591 1 57.646 39.9757 2.11069 
592 1 55.1217 42.5 2.11069 
593 1 60.1703 39.9757 -0.413646 
594 1 62.6947 42.5 -0.413646 
595 1 62.6947 39.9757 2.11069 
596 1 60.1703 42.5 2.11069 
597 1 65.219 39.9757 -0.413646 
598 1 67.7433 42.5 -0.413646 
599 1 67.7433 39.9757 2.11069 
600 1 65.219 42.5 2.11069 
601 1 70.2677 39.9757 -0.413646 
602 1 72.792 42.5 -0.413646 
603 1 72.792 39.9757 2.11069 
604 1 70.2677 42.5 2.11069 
605 1 75.3163 39.9757 -0.413646 
606 1 77.8406 42.5 -0.413646 
607 1 77.8406 39.9757 2.11069 
608 1 75.3163 42.5 2.11069 
609 1 80.365 39.9757 -0.413646 
610 1 82.8893 42.5 -0.413646 
611 1 82.8893 39.9757 2.11069 
612 1 80.365 42.5 2.11069 
613 1 -0.413646 45.0243 -0.413646 
614 1 2.11069 47.5487 -0.413646 
615 1 2.11069 45.0243 2.11069 
616 1 -0.413646 47.5487 2.11069 
617 1 4.63502 45.0243 -0.413646 
618 1 7.15935 47.5487 -0.413646 
619 1 7.15935 45.0243 2.11069 
620 1 4.63502 47.5487 2.11069 
621 1 9.68368 45.0243 -0.413646 
622 1 12.208 47.5487 -0.413646 
623 1 12.208 45.0243 2.11069 
624 1 9.68368 47.5487 2.11069 
625 1 14.7323 45.0243 -0.413646 
626 1 17.2567 47.5487 -0.413646 
627 1 17.2567 45.0243 2.11069 
628 1 14.7323 47.5487 2.11069 
629 1 19.781 45.0243 -0.413646 
630 1 22.3053 47.5487 -0.413646 
631 1 22.3053 45.0243 2.11069 
632 1 19.781 47.5487 2.11069 
633 1 24.8297 45.0243 -0.413646 
634 1 27.354 47.5487 -0.413646 
635 1 27.354 45.0243 2.11069 
636 1 24.8297 47.5487 2.11069 
637 1 29.8783 45.0243 -0.413646 
638 1 32.4027 47.5487 -0.413646 
639 1 32.4027 45.0243 2.11069 
640 1 29.8783 47.5487 2.11069 
641 1 34.927 45.0243 -0.413646 
642 1 37.4513 47.5487 -0.413646 
643 1 37.4513 45.0243 2.11069 
644 1 34.927 47.5487 2.11069 
645 1 39.9757 45.0243 -0.413646 
646 1 42.5 47.5487 -0.413646 
647 1 42.5 45.0243 2.11069 
648 1 39.9757 47.5487 2.11069 
649 1 45.0243 45.0243 -0.413646 
650 1 47.5487 47.5487 -0.413646 
651 1 47.5487 45.0243 2.11069 
652 1 45.0243 47.5487 2.11069 
653 1 50.073 45.0243 -0.413646 
654 1 52.5973 47.5487 -0.413646 
655 1 52.5973 45.0243 2.11069 
656 1 50.073 47.5487 2.11069 
657 1 55.1217 45.0243 -0.413646 
658 1 57.646 47.5487 -0.413646 
659 1 57.646 45.0243 2.11069 
660 1 55.1217 47.5487 2.11069 
661 1 60.1703 45.0243 -0.413646 
662 1 62.6947 47.5487 -0.413646 
663 1 62.6947 45.0243 2.11069 
664 1 60.1703 47.5487 2.11069 
665 1 65.219 45.0243 -0.413646 
666 1 67.7433 47.5487 -0.413646 
667 1 67.7433 45.0243 2.11069 
668 1 65.219 47.5487 2.11069 
669 1 70.2677 45.0243 -0.413646 
670 1 72.792 47.5487 -0.413646 
671 1 72.792 45.0243 2.11069 
672 1 70.2677 47.5487 2.11069 
673 1 75.3163 45.0243 -0.413646 
674 1 77.8406 47.5487 -0.413646 
675 1 77.8406 45.0243 2.11069 
676 1 75.3163 47.5487 2.11069 
677 1 80.365 45.0243 -0.413646 
678 1 82.8893 47.5487 -0.413646 
679 1 82.8893 45.0243 2.11069 
680 1 80.365 47.5487 2.11069 
681 1 -0.413646 50.073 -0.413646 
682 1 2.11069 52.5973 -0.413646 
683 1 2.11069 50.073 2.11069 
684 1 -0.413646 52.5973 2.11069 
685 1 4.63502 50.073 -0.413646 
686 1 7.15935 52.5973 -0.413646 
687 1 7.15935 50.073 2.11069 
688 1 4.63502 52.5973 2.11069 
689 1 9.68368 50.073 -0.413646 
690 1 12.208 52.5973 -0.413646 
691 1 12.208 50.073 2.11069 
692 1 9.68368 52.5973 2.11069 
693 1 14.7323 50.073 -0.413646 
694 1 17.2567 52.5973 -0.413646 
695 1 17.2567 50.073 2.11069 
696 1 14.7323 52.5973 2.11069 
697 1 19.781 50.073 -0.413646 
698 1 22.3053 52.5973 -0.413646 
699 1 22.3053 50.073 2.11069 
700 1 19.781 52.5973 2.11069 
701 1 24.8297 50.073 -0.413646 
702 1 27.354 52.5973 -0.413646 
703 1 27.354 50.073 2.11069 
704 1 24.8297 52.5973 2.11069 
705 1 29.8783 50.073 -0.413646 
706 1 32.4027 52.5973 -0.413646 
707 1 32.4027 50.073 2.11069 
708 1 29.8783 52.5973 2.11069 
709 1 34.927 50.073 -0.413646 
710 1 37.4513 52.5973 -0.413646 
711 1 37.4513 50.073 2.11069 
712 1 34.927 52.5973 2.11069 
713 1 39.9757 50.073 -0.413646 
714 1 42.5 52.5973 -0.413646 
715 1 42.5 50.073 2.11069 
716 1 39.9757 52.5973 2.11069 
717 1 45.0243 50.073 -0.413646 
718 1 47.5487 52.5973 -0.413646 
719 1 47.5487 50.073 2.11069 
720 1 45.0243 52.5973 2.11069 
721 1 50.073 50.073 -0.413646 
722 1 52.5973 52.5973 -0.413646 
723 1 52.5973 50.073 2.11069 
724 1 50.073 52.5973 2.11069 
725 1 55.1217 50.073 -0.413646 
726 1 57.646 52.5973 -0.413646 
727 1 57.646 50.073 2.11069 
728 1 55.1217 52.5973 2.11069 
729 1 60.1703 50.073 -0.413646 
730 1 62.6947 52.5973 -0.413646 
731 1 62.6947 50.073 2.11069 
732 1 60.1703 52.5973 2.11069 
733 1 65.219 50.073 -0.413646 
734 1 67.7433 52.5973 -0.413646 
735 1 67.7433 50.073 2.11069 
736 1 65.219 52.5973 2.11069 
737 1 70.2677 50.073 -0.413646 
738 1 72.792 52.5973 -0.413646 
739 1 72.792 50.073 2.11069 
740 1 70.2677 52.5973 2.11069 
741 1 75.3163 50.073 -0.413646 
742 1 77.8406 52.5973 -0.413646 
743 1 77.8406 50.073 2.11069 
744 1 75.3163 52.5973 2.11069 
745 1 80.365 50.073 -0.413646 
746 1 82.8893 52.5973 -0.413646 
747 1 82.8893 50.073 2.11069 
748 1 80.365 52.5973 2.11069 
749 1 -0.413646 55.1217 -0.413646 
750 1 2.11069 57.646 -0.413646 
751 1 2.11069 55.1217 2.11069 
752 1 -0.413646 57.646 2.11069 
753 1 4.63502 55.1217 -0.413646 
754 1 7.15935 57.646 -0.413646 
755 1 7.15935 55.1217 2.11069 
756 1 4.63502 57.646 2.11069 
757 1 9.68368 55.1217 -0.413646 
758 1 12.208 57.646 -0.413646 
759 1 12.208 55.1217 2.11069 
760 1 9.68368 57.646 2.11069 
761 1 14.7323 55.1217 -0.413646 
762 1 17.2567 57.646 -0.413646 
763 1 17.2567 55.1217 2.11069 
764 1 14.7323 57.646 2.11069 
765 1 19.781 55.1217 -0.413646 
766 1 22.3053 57.646 -0.413646 
767 1 22.3053 55.1217 2.11069 
768 1 19.781 57.646 2.11069 
769 1 24.8297 55.1217 -0.413646 
770 1 27.354 57.646 -0.413646 
771 1 27.354 55.1217 2.11069 
772 1 24.8297 57.646 2.11069 
773 1 29.8783 55.1217 -0.413646 
774 1 32.4027 57.646 -0.413646 
775 1 32.4027 55.1217 2.11069 
776 1 29.8783 57.646 2.11069 
777 1 34.927 55.1217 -0.413646 
778 1 37.4513 57.646 -0.413646 
779 1 37.4513 55.1217 2.11069 
780 1 34.927 57.646 2.11069 
781 1 39.9757 55.1217 -0.413646 
782 1 42.5 57.646 -0.413646 
783 1 42.5 55.1217 2.11069 
784 1 39.9757 57.646 2.11069 
785 1 45.0243 55.1217 -0.413646 
786 1 47.5487 57.646 -0.413646 
787 1 47.5487 55.1217 2.11069 
788 1 45.0243 57.646 2.11069 
789 1 50.073 55.1217 -0.413646 
790 1 52.5973 57.646 -0.413646 
791 1 52.5973 55.1217 2.11069 
792 1 50.073 57.646 2.11069 
793 1 55.1217 55.1217 -0.413646 
794 1 57.646 57.646 -0.413646 
795 1 57.646 55.1217 2.11069 
796 1 55.1217 57.646 2.11069 
797 1 60.1703 55.1217 -0.413646 
798 1 62.6947 57.646 -0.413646 
799 1 62.6947 55.1217 2.11069 
800 1 60.1703 57.646 2.11069 
801 1 65.219 55.1217 -0.413646 
802 1 67.7433 57.646 -0.413646 
803 1 67.7433 55.1217 2.11069 
804 1 65.219 57.646 2.11069 
805 1 70.2677 55.1217 -0.413646 
806 1 72.792 57.646 -0.413646 
807 1 72.792 55.1217 2.11069 
808 1 70.2677 57.646 2.11069 
809 1 75.3163 55.1217 -0.413646 
810 1 77.8406 57.646 -0.413646 
811 1 77.8406 55.1217 2.11069 
812 1 75.3163 57.646 2.11069 
813 1 80.365 55.1217 -0.413646 
814 1 82.8893 57.646 -0.413646 
815 1 82.8893 55.1217 2.11069 
816 1 80.365 57.646 2.11069 
817 1 -0.413646 60.1703 -0.413646 
818 1 2.11069 62.6947 -0.413646 
819 1 2.11069 60.1703 2.11069 
820 1 -0.413646 62.6947 2.11069 
821 1 4.63502 60.1703 -0.413646 
822 1 7.15935 62.6947 -0.413646 
823 1 7.15935 60.1703 2.11069 
824 1 4.63502 62.6947 2.11069 
825 1 9.68368 60.1703 -0.413646 
826 1 12.208 62.6947 -0.413646 
827 1 12.208 60.1703 2.11069 
828 1 9.68368 62.6947 2.11069 
829 1 14.7323 60.1703 -0.413646 
830 1 17.2567 62.6947 -0.413646 
831 1 17.2567 60.1703 2.11069 
832 1 14.7323 62.6947 2.11069 
833 1 19.781 60.1703 -0.413646 
834 1 22.3053 62.6947 -0.413646 
835 1 22.3053 60.1703 2.11069 
836 1 19.781 62.6947 2.11069 
837 1 24.8297 60.1703 -0.413646 
838 1 27.354 62.6947 -0.413646 
839 1 27.354 60.1703 2.11069 
840 1 24.8297 62.6947 2.11069 
841 1 29.8783 60.1703 -0.413646 
842 1 32.4027 62.6947 -0.413646 
843 1 32.4027 60.1703 2.11069 
844 1 29.8783 62.6947 2.11069 
845 1 34.927 60.1703 -0.413646 
846 1 37.4513 62.6947 -0.413646 
847 1 37.4513 60.1703 2.11069 
848 1 34.927 62.6947 2.11069 
849 1 39.9757 60.1703 -0.413646 
850 1 42.5 62.6947 -0.413646 
851 1 42.5 60.1703 2.11069 
852 1 39.9757 62.6947 2.11069 
853 1 45.0243 60.1703 -0.413646 
854 1 47.5487 62.6947 -0.413646 
855 1 47.5487 60.1703 2.11069 
856 1 45.0243 62.6947 2.11069 
857 1 50.073 60.1703 -0.413646 
858 1 52.5973 62.6947 -0.413646 
859 1 52.5973 60.1703 2.11069 
860 1 50.073 62.6947 2.11069 
861 1 55.1217 60.1703 -0.413646 
862 1 57.646 62.6947 -0.413646 
863 1 57.646 60.1703 2.11069 
864 1 55.1217 62.6947 2.11069 
865 1 60.1703 60.1703 -0.413646 
866 1 62.6947 62.6947 -0.413646 
867 1 62.6947 60.1703 2.11069 
868 1 60.1703 62.6947 2.11069 
869 1 65.219 60.1703 -0.413646 
870 1 67.7433 62.6947 -0.413646 
871 1 67.7433 60.1703 2.11069 
872 1 65.219 62.6947 2.11069 
873 1 70.2677 60.1703 -0.413646 
874 1 72.792 62.6947 -0.413646 
875 1 72.792 60.1703 2.11069 
876 1 70.2677 62.6947 2.11069 
877 1 75.3163 60.1703 -0.413646 
878 1 77.8406 62.6947 -0.413646 
879 1 77.8406 60.1703 2.11069 
880 1 75.3163 62.6947 2.11069 
881 1 80.365 60.1703 -0.413646 
882 1 82.8893 62.6947 -0.413646 
883 1 82.8893 60.1703 2.11069 
884 1 80.365 62.6947 2.11069 
885 1 -0.413646 65.219 -0.413646 
886 1 2.11069 67.7433 -0.413646 
887 1 2.11069 65.219 2.11069 
888 1 -0.413646 67.7433 2.11069 
889 1 4.63502 65.219 -0.413646 
890 1 7.15935 67.7433 -0.413646 
891 1 7.15935 65.219 2.11069 
892 1 4.63502 67.7433 2.11069 
893 1 9.68368 65.219 -0.413646 
894 1 12.208 67.7433 -0.413646 
895 1 12.208 65.219 2.11069 
896 1 9.68368 67.7433 2.11069 
897 1 14.7323 65.219 -0.413646 
898 1 17.2567 67.7433 -0.413646 
899 1 17.2567 65.219 2.11069 
900 1 14.7323 67.7433 2.11069 
901 1 19.781 65.219 -0.413646 
902 1 22.3053 67.7433 -0.413646 
903 1 22.3053 65.219 2.11069 
904 1 19.781 67.7433 2.11069 
905 1 24.8297 65.219 -0.413646 
906 1 27.354 67.7433 -0.413646 
907 1 27.354 65.219 2.11069 
908 1 24.8297 67.7433 2.11069 
909 1 29.8783 65.219 -0.413646 
910 1 32.4027 67.7433 -0.413646 
911 1 32.4027 65.219 2.11069 
912 1 29.8783 67.7433 2.11069 
913 1 34.927 65.219 -0.413646 
914 1 37.4513 67.7433 -0.413646 
915 1 37.4513 65.219 2.11069 
916 1 34.927 67.7433 2.11069 
917 1 39.9757 65.219 -0.413646 
918 1 42.5 67.7433 -0.413646 
919 1 42.5 65.219 2.11069 
920 1 39.9757 67.7433 2.11069 
921 1 45.0243 65.219 -0.413646 
922 1 47.5487 67.7433 -0.413646 
923 1 47.5487 65.219 2.11069 
924 1 45.0243 67.7433 2.11069 
925 1 50.073 65.219 -0.413646 
926 1 52.5973 67.7433 -0.413646 
927 1 52.5973 65.219 2.11069 
928 1 50.073 67.7433 2.11069 
929 1 55.1217 65.219 -0.413646 
930 1 57.646 67.7433 -0.413646 
931 1 57.646 65.219 2.11069 
932 1 55.1217 67.7433 2.11069 
933 1 60.1703 65.219 -0.413646 
934 1 62.6947 67.7433 -0.413646 
935 1 62.6947 65.219 2.11069 
936 1 60.1703 67.7433 2.11069 
937 1 65.219 65.219 -0.413646 
938 1 67.7433 67.7433 -0.413646 
939 1 67.7433 65.219 2.11069 
940 1 65.219 67.7433 2.11069 
941 1 70.2677 65.219 -0.413646 
942 1 72.792 67.7433 -0.413646 
943 1 72.792 65.219 2.11069 
944 1 70.2677 67.7433 2.11069 
945 1 75.3163 65.219 -0.413646 
946 1 77.8406 67.7433 -0.413646 
947 1 77.8406 65.219 2.11069 
948 1 75.3163 67.7433 2.11069 
949 1 80.365 65.219 -0.413646 
950 1 82.8893 67.7433 -0.413646 