ITEM: TIMESTEP
40
ITEM: NUMBER OF ATOMS
9826
ITEM: BOX BOUNDS pp pp pp
7.9688352167330851e+00 7.7031164783266718e+01
7.9688352167330851e+00 7.7031164783266718e+01
7.9688352167330851e+00 7.7031164783266718e+01
ITEM: ATOMS id type xu yu zu 
1 1 7.96884 7.96884 7.96884 
2 1 10.0001 10.0001 10.0001 
3 1 12.0313 7.96884 7.96884 
4 1 14.0626 10.0001 10.0001 
5 1 16.0938 7.96884 7.96884 
6 1 18.1251 10.0001 10.0001 
7 1 20.1563 7.96884 7.96884 
8 1 22.1876 10.0001 10.0001 
9 1 24.2188 7.96884 7.96884 
10 1 26.25 10.0001 10.0001 
11 1 28.2813 7.96884 7.96884 
12 1 30.3125 10.0001 10.0001 
13 1 32.3438 7.96884 7.96884 
14 1 34.375 10.0001 10.0001 
15 1 36.4063 7.96884 7.96884 
16 1 38.4375 10.0001 10.0001 
17 1 40.4688 7.96884 7.96884 
18 1 42.5 10.0001 10.0001 
19 1 44.5312 7.96884 7.96884 
20 1 46.5625 10.0001 10.0001 
21 1 48.5937 7.96884 7.96884 
22 1 50.625 10.0001 10.0001 
23 1 52.6562 7.96884 7.96884 
24 1 54.6875 10.0001 10.0001 
25 1 56.7187 7.96884 7.96884 
26 1 58.75 10.0001 10.0001 
27 1 60.7812 7.96884 7.96884 
28 1 62.8124 10.0001 10.0001 
29 1 64.8437 7.96884 7.96884 
30 1 66.8749 10.0001 10.0001 
31 1 68.9062 7.96884 7.96884 
32 1 70.9374 10.0001 10.0001 
33 1 72.9687 7.96884 7.96884 
34 1 74.9999 10.0001 10.0001 
35 1 7.96884 12.0313 7.96884 
36 1 10.0001 14.0626 10.0001 
37 1 12.0313 12.0313 7.96884 
38 1 14.0626 14.0626 10.0001 
39 1 16.0938 12.0313 7.96884 
40 1 18.1251 14.0626 10.0001 
41 1 20.1563 12.0313 7.96884 
42 1 22.1876 14.0626 10.0001 
43 1 24.2188 12.0313 7.96884 
44 1 26.25 14.0626 10.0001 
45 1 28.2813 12.0313 7.96884 
46 1 30.3125 14.0626 10.0001 
47 1 32.3438 12.0313 7.96884 
48 1 34.375 14.0626 10.0001 
49 1 36.4063 12.0313 7.96884 
50 1 38.4375 14.0626 10.0001 
51 1 40.4688 12.0313 7.96884 
52 1 42.5 14.0626 10.0001 
53 1 44.5312 12.0313 7.96884 
54 1 46.5625 14.0626 10.0001 
55 1 48.5937 12.0313 7.96884 
56 1 50.625 14.0626 10.0001 
57 1 52.6562 12.0313 7.96884 
58 1 54.6875 14.0626 10.0001 
59 1 56.7187 12.0313 7.96884 
60 1 58.75 14.0626 10.0001 
61 1 60.7812 12.0313 7.96884 
62 1 62.8124 14.0626 10.0001 
63 1 64.8437 12.0313 7.96884 
64 1 66.8749 14.0626 10.0001 
65 1 68.9062 12.0313 7.96884 
66 1 70.9374 14.0626 10.0001 
67 1 72.9687 12.0313 7.96884 
68 1 74.9999 14.0626 10.0001 
69 1 7.96884 16.0938 7.96884 
70 1 10.0001 18.1251 10.0001 
71 1 12.0313 16.0938 7.96884 
72 1 14.0626 18.1251 10.0001 
73 1 16.0938 16.0938 7.96884 
74 1 18.1251 18.1251 10.0001 
75 1 20.1563 16.0938 7.96884 
76 1 22.1876 18.1251 10.0001 
77 1 24.2188 16.0938 7.96884 
78 1 26.25 18.1251 10.0001 
79 1 28.2813 16.0938 7.96884 
80 1 30.3125 18.1251 10.0001 
81 1 32.3438 16.0938 7.96884 
82 1 34.375 18.1251 10.0001 
83 1 36.4063 16.0938 7.96884 
84 1 38.4375 18.1251 10.0001 
85 1 40.4688 16.0938 7.96884 
86 1 42.5 18.1251 10.0001 
87 1 44.5312 16.0938 7.96884 
88 1 46.5625 18.1251 10.0001 
89 1 48.5937 16.0938 7.96884 
90 1 50.625 18.1251 10.0001 
91 1 52.6562 16.0938 7.96884 
92 1 54.6875 18.1251 10.0001 
93 1 56.7187 16.0938 7.96884 
94 1 58.75 18.1251 10.0001 
95 1 60.7812 16.0938 7.96884 
96 1 62.8124 18.1251 10.0001 
97 1 64.8437 16.0938 7.96884 
98 1 66.8749 18.1251 10.0001 
99 1 68.9062 16.0938 7.96884 
100 1 70.9374 18.1251 10.0001 
101 1 72.9687 16.0938 7.96884 
102 1 74.9999 18.1251 10.0001 
103 1 7.96884 20.1563 7.96884 
104 1 10.0001 22.1876 10.0001 
105 1 12.0313 20.1563 7.96884 
106 1 14.0626 22.1876 10.0001 
107 1 16.0938 20.1563 7.96884 
108 1 18.1251 22.1876 10.0001 
109 1 20.1563 20.1563 7.96884 
110 1 22.1876 22.1876 10.0001 
111 1 24.2188 20.1563 7.96884 
112 1 26.25 22.1876 10.0001 
113 1 28.2813 20.1563 7.96884 
114 1 30.3125 22.1876 10.0001 
115 1 32.3438 20.1563 7.96884 
116 1 34.375 22.1876 10.0001 
117 1 36.4063 20.1563 7.96884 
118 1 38.4375 22.1876 10.0001 
119 1 40.4688 20.1563 7.96884 
120 1 42.5 22.1876 10.0001 
121 1 44.5312 20.1563 7.96884 
122 1 46.5625 22.1876 10.0001 
123 1 48.5937 20.1563 7.96884 
124 1 50.625 22.1876 10.0001 
125 1 52.6562 20.1563 7.96884 
126 1 54.6875 22.1876 10.0001 
127 1 56.7187 20.1563 7.96884 
128 1 58.75 22.1876 10.0001 
129 1 60.7812 20.1563 7.96884 
130 1 62.8124 22.1876 10.0001 
131 1 64.8437 20.1563 7.96884 
132 1 66.8749 22.1876 10.0001 
133 1 68.9062 20.1563 7.96884 
134 1 70.9374 22.1876 10.0001 
135 1 72.9687 20.1563 7.96884 
136 1 74.9999 22.1876 10.0001 
137 1 7.96884 24.2188 7.96884 
138 1 10.0001 26.25 10.0001 
139 1 12.0313 24.2188 7.96884 
140 1 14.0626 26.25 10.0001 
141 1 16.0938 24.2188 7.96884 
142 1 18.1251 26.25 10.0001 
143 1 20.1563 24.2188 7.96884 
144 1 22.1876 26.25 10.0001 
145 1 24.2188 24.2188 7.96884 
146 1 26.25 26.25 10.0001 
147 1 28.2813 24.2188 7.96884 
148 1 30.3125 26.25 10.0001 
149 1 32.3438 24.2188 7.96884 
150 1 34.375 26.25 10.0001 
151 1 36.4063 24.2188 7.96884 
152 1 38.4375 26.25 10.0001 
153 1 40.4688 24.2188 7.96884 
154 1 42.5 26.25 10.0001 
155 1 44.5312 24.2188 7.96884 
156 1 46.5625 26.25 10.0001 
157 1 48.5937 24.2188 7.96884 
158 1 50.625 26.25 10.0001 
159 1 52.6562 24.2188 7.96884 
160 1 54.6875 26.25 10.0001 
161 1 56.7187 24.2188 7.96884 
162 1 58.75 26.25 10.0001 
163 1 60.7812 24.2188 7.96884 
164 1 62.8124 26.25 10.0001 
165 1 64.8437 24.2188 7.96884 
166 1 66.8749 26.25 10.0001 
167 1 68.9062 24.2188 7.96884 
168 1 70.9374 26.25 10.0001 
169 1 72.9687 24.2188 7.96884 
170 1 74.9999 26.25 10.0001 
171 1 7.96884 28.2813 7.96884 
172 1 10.0001 30.3125 10.0001 
173 1 12.0313 28.2813 7.96884 
174 1 14.0626 30.3125 10.0001 
175 1 16.0938 28.2813 7.96884 
176 1 18.1251 30.3125 10.0001 
177 1 20.1563 28.2813 7.96884 
178 1 22.1876 30.3125 10.0001 
179 1 24.2188 28.2813 7.96884 
180 1 26.25 30.3125 10.0001 
181 1 28.2813 28.2813 7.96884 
182 1 30.3125 30.3125 10.0001 
183 1 32.3438 28.2813 7.96884 
184 1 34.375 30.3125 10.0001 
185 1 36.4063 28.2813 7.96884 
186 1 38.4375 30.3125 10.0001 
187 1 40.4688 28.2813 7.96884 
188 1 42.5 30.3125 10.0001 
189 1 44.5312 28.2813 7.96884 
190 1 46.5625 30.3125 10.0001 
191 1 48.5937 28.2813 7.96884 
192 1 50.625 30.3125 10.0001 
193 1 52.6562 28.2813 7.96884 
194 1 54.6875 30.3125 10.0001 
195 1 56.7187 28.2813 7.96884 
196 1 58.75 30.3125 10.0001 
197 1 60.7812 28.2813 7.96884 
198 1 62.8124 30.3125 10.0001 
199 1 64.8437 28.2813 7.96884 
200 1 66.8749 30.3125 10.0001 
201 1 68.9062 28.2813 7.96884 
202 1 70.9374 30.3125 10.0001 
203 1 72.9687 28.2813 7.96884 
204 1 74.9999 30.3125 10.0001 
205 1 7.96884 32.3438 7.96884 
206 1 10.0001 34.375 10.0001 
207 1 12.0313 32.3438 7.96884 
208 1 14.0626 34.375 10.0001 
209 1 16.0938 32.3438 7.96884 
210 1 18.1251 34.375 10.0001 
211 1 20.1563 32.3438 7.96884 
212 1 22.1876 34.375 10.0001 
213 1 24.2188 32.3438 7.96884 
214 1 26.25 34.375 10.0001 
215 1 28.2813 32.3438 7.96884 
216 1 30.3125 34.375 10.0001 
217 1 32.3438 32.3438 7.96884 
218 1 34.375 34.375 10.0001 
219 1 36.4063 32.3438 7.96884 
220 1 38.4375 34.375 10.0001 
221 1 40.4688 32.3438 7.96884 
222 1 42.5 34.375 10.0001 
223 1 44.5312 32.3438 7.96884 
224 1 46.5625 34.375 10.0001 
225 1 48.5937 32.3438 7.96884 
226 1 50.625 34.375 10.0001 
227 1 52.6562 32.3438 7.96884 
228 1 54.6875 34.375 10.0001 
229 1 56.7187 32.3438 7.96884 
230 1 58.75 34.375 10.0001 
231 1 60.7812 32.3438 7.96884 
232 1 62.8124 34.375 10.0001 
233 1 64.8437 32.3438 7.96884 
234 1 66.8749 34.375 10.0001 
235 1 68.9062 32.3438 7.96884 
236 1 70.9374 34.375 10.0001 
237 1 72.9687 32.3438 7.96884 
238 1 74.9999 34.375 10.0001 
239 1 7.96884 36.4063 7.96884 
240 1 10.0001 38.4375 10.0001 
241 1 12.0313 36.4063 7.96884 
242 1 14.0626 38.4375 10.0001 
243 1 16.0938 36.4063 7.96884 
244 1 18.1251 38.4375 10.0001 
245 1 20.1563 36.4063 7.96884 
246 1 22.1876 38.4375 10.0001 
247 1 24.2188 36.4063 7.96884 
248 1 26.25 38.4375 10.0001 
249 1 28.2813 36.4063 7.96884 
250 1 30.3125 38.4375 10.0001 
251 1 32.3438 36.4063 7.96884 
252 1 34.375 38.4375 10.0001 
253 1 36.4063 36.4063 7.96884 
254 1 38.4375 38.4375 10.0001 
255 1 40.4688 36.4063 7.96884 
256 1 42.5 38.4375 10.0001 
257 1 44.5312 36.4063 7.96884 
258 1 46.5625 38.4375 10.0001 
259 1 48.5937 36.4063 7.96884 
260 1 50.625 38.4375 10.0001 
261 1 52.6562 36.4063 7.96884 
262 1 54.6875 38.4375 10.0001 
263 1 56.7187 36.4063 7.96884 
264 1 58.75 38.4375 10.0001 
265 1 60.7812 36.4063 7.96884 
266 1 62.8124 38.4375 10.0001 
267 1 64.8437 36.4063 7.96884 
268 1 66.8749 38.4375 10.0001 
269 1 68.9062 36.4063 7.96884 
270 1 70.9374 38.4375 10.0001 
271 1 72.9687 36.4063 7.96884 
272 1 74.9999 38.4375 10.0001 
273 1 7.96884 40.4688 7.96884 
274 1 10.0001 42.5 10.0001 
275 1 12.0313 40.4688 7.96884 
276 1 14.0626 42.5 10.0001 
277 1 16.0938 40.4688 7.96884 
278 1 18.1251 42.5 10.0001 
279 1 20.1563 40.4688 7.96884 
280 1 22.1876 42.5 10.0001 
281 1 24.2188 40.4688 7.96884 
282 1 26.25 42.5 10.0001 
283 1 28.2813 40.4688 7.96884 
284 1 30.3125 42.5 10.0001 
285 1 32.3438 40.4688 7.96884 
286 1 34.375 42.5 10.0001 
287 1 36.4063 40.4688 7.96884 
288 1 38.4375 42.5 10.0001 
289 1 40.4688 40.4688 7.96884 
290 1 42.5 42.5 10.0001 
291 1 44.5312 40.4688 7.96884 
292 1 46.5625 42.5 10.0001 
293 1 48.5937 40.4688 7.96884 
294 1 50.625 42.5 10.0001 
295 1 52.6562 40.4688 7.96884 
296 1 54.6875 42.5 10.0001 
297 1 56.7187 40.4688 7.96884 
298 1 58.75 42.5 10.0001 
299 1 60.7812 40.4688 7.96884 
300 1 62.8124 42.5 10.0001 
301 1 64.8437 40.4688 7.96884 
302 1 66.8749 42.5 10.0001 
303 1 68.9062 40.4688 7.96884 
304 1 70.9374 42.5 10.0001 
305 1 72.9687 40.4688 7.96884 
306 1 74.9999 42.5 10.0001 
307 1 7.96884 44.5312 7.96884 
308 1 10.0001 46.5625 10.0001 
309 1 12.0313 44.5312 7.96884 
310 1 14.0626 46.5625 10.0001 
311 1 16.0938 44.5312 7.96884 
312 1 18.1251 46.5625 10.0001 
313 1 20.1563 44.5312 7.96884 
314 1 22.1876 46.5625 10.0001 
315 1 24.2188 44.5312 7.96884 
316 1 26.25 46.5625 10.0001 
317 1 28.2813 44.5312 7.96884 
318 1 30.3125 46.5625 10.0001 
319 1 32.3438 44.5312 7.96884 
320 1 34.375 46.5625 10.0001 
321 1 36.4063 44.5312 7.96884 
322 1 38.4375 46.5625 10.0001 
323 1 40.4688 44.5312 7.96884 
324 1 42.5 46.5625 10.0001 
325 1 44.5312 44.5312 7.96884 
326 1 46.5625 46.5625 10.0001 
327 1 48.5937 44.5312 7.96884 
328 1 50.625 46.5625 10.0001 
329 1 52.6562 44.5312 7.96884 
330 1 54.6875 46.5625 10.0001 
331 1 56.7187 44.5312 7.96884 
332 1 58.75 46.5625 10.0001 
333 1 60.7812 44.5312 7.96884 
334 1 62.8124 46.5625 10.0001 
335 1 64.8437 44.5312 7.96884 
336 1 66.8749 46.5625 10.0001 
337 1 68.9062 44.5312 7.96884 
338 1 70.9374 46.5625 10.0001 
339 1 72.9687 44.5312 7.96884 
340 1 74.9999 46.5625 10.0001 
341 1 7.96884 48.5937 7.96884 
342 1 10.0001 50.625 10.0001 
343 1 12.0313 48.5937 7.96884 
344 1 14.0626 50.625 10.0001 
345 1 16.0938 48.5937 7.96884 
346 1 18.1251 50.625 10.0001 
347 1 20.1563 48.5937 7.96884 
348 1 22.1876 50.625 10.0001 
349 1 24.2188 48.5937 7.96884 
350 1 26.25 50.625 10.0001 
351 1 28.2813 48.5937 7.96884 
352 1 30.3125 50.625 10.0001 
353 1 32.3438 48.5937 7.96884 
354 1 34.375 50.625 10.0001 
355 1 36.4063 48.5937 7.96884 
356 1 38.4375 50.625 10.0001 
357 1 40.4688 48.5937 7.96884 
358 1 42.5 50.625 10.0001 
359 1 44.5312 48.5937 7.96884 
360 1 46.5625 50.625 10.0001 
361 1 48.5937 48.5937 7.96884 
362 1 50.625 50.625 10.0001 
363 1 52.6562 48.5937 7.96884 
364 1 54.6875 50.625 10.0001 
365 1 56.7187 48.5937 7.96884 
366 1 58.75 50.625 10.0001 
367 1 60.7812 48.5937 7.96884 
368 1 62.8124 50.625 10.0001 
369 1 64.8437 48.5937 7.96884 
370 1 66.8749 50.625 10.0001 
371 1 68.9062 48.5937 7.96884 
372 1 70.9374 50.625 10.0001 
373 1 72.9687 48.5937 7.96884 
374 1 74.9999 50.625 10.0001 
375 1 7.96884 52.6562 7.96884 
376 1 10.0001 54.6875 10.0001 
377 1 12.0313 52.6562 7.96884 
378 1 14.0626 54.6875 10.0001 
379 1 16.0938 52.6562 7.96884 
380 1 18.1251 54.6875 10.0001 
381 1 20.1563 52.6562 7.96884 
382 1 22.1876 54.6875 10.0001 
383 1 24.2188 52.6562 7.96884 
384 1 26.25 54.6875 10.0001 
385 1 28.2813 52.6562 7.96884 
386 1 30.3125 54.6875 10.0001 
387 1 32.3438 52.6562 7.96884 
388 1 34.375 54.6875 10.0001 
389 1 36.4063 52.6562 7.96884 
390 1 38.4375 54.6875 10.0001 
391 1 40.4688 52.6562 7.96884 
392 1 42.5 54.6875 10.0001 
393 1 44.5312 52.6562 7.96884 
394 1 46.5625 54.6875 10.0001 
395 1 48.5937 52.6562 7.96884 
396 1 50.625 54.6875 10.0001 
397 1 52.6562 52.6562 7.96884 
398 1 54.6875 54.6875 10.0001 
399 1 56.7187 52.6562 7.96884 
400 1 58.75 54.6875 10.0001 
401 1 60.7812 52.6562 7.96884 
402 1 62.8124 54.6875 10.0001 
403 1 64.8437 52.6562 7.96884 
404 1 66.8749 54.6875 10.0001 
405 1 68.9062 52.6562 7.96884 
406 1 70.9374 54.6875 10.0001 
407 1 72.9687 52.6562 7.96884 
408 1 74.9999 54.6875 10.0001 
409 1 7.96884 56.7187 7.96884 
410 1 10.0001 58.75 10.0001 
411 1 12.0313 56.7187 7.96884 
412 1 14.0626 58.75 10.0001 
413 1 16.0938 56.7187 7.96884 
414 1 18.1251 58.75 10.0001 
415 1 20.1563 56.7187 7.96884 
416 1 22.1876 58.75 10.0001 
417 1 24.2188 56.7187 7.96884 
418 1 26.25 58.75 10.0001 
419 1 28.2813 56.7187 7.96884 
420 1 30.3125 58.75 10.0001 
421 1 32.3438 56.7187 7.96884 
422 1 34.375 58.75 10.0001 
423 1 36.4063 56.7187 7.96884 
424 1 38.4375 58.75 10.0001 
425 1 40.4688 56.7187 7.96884 
426 1 42.5 58.75 10.0001 
427 1 44.5312 56.7187 7.96884 
428 1 46.5625 58.75 10.0001 
429 1 48.5937 56.7187 7.96884 
430 1 50.625 58.75 10.0001 
431 1 52.6562 56.7187 7.96884 
432 1 54.6875 58.75 10.0001 
433 1 56.7187 56.7187 7.96884 
434 1 58.75 58.75 10.0001 
435 1 60.7812 56.7187 7.96884 
436 1 62.8124 58.75 10.0001 
437 1 64.8437 56.7187 7.96884 
438 1 66.8749 58.75 10.0001 
439 1 68.9062 56.7187 7.96884 
440 1 70.9374 58.75 10.0001 
441 1 72.9687 56.7187 7.96884 
442 1 74.9999 58.75 10.0001 
443 1 7.96884 60.7812 7.96884 
444 1 10.0001 62.8124 10.0001 
445 1 12.0313 60.7812 7.96884 
446 1 14.0626 62.8124 10.0001 
447 1 16.0938 60.7812 7.96884 
448 1 18.1251 62.8124 10.0001 
449 1 20.1563 60.7812 7.96884 
450 1 22.1876 62.8124 10.0001 
451 1 24.2188 60.7812 7.96884 
452 1 26.25 62.8124 10.0001 
453 1 28.2813 60.7812 7.96884 
454 1 30.3125 62.8124 10.0001 
455 1 32.3438 60.7812 7.96884 
456 1 34.375 62.8124 10.0001 
457 1 36.4063 60.7812 7.96884 
458 1 38.4375 62.8124 10.0001 
459 1 40.4688 60.7812 7.96884 
460 1 42.5 62.8124 10.0001 
461 1 44.5312 60.7812 7.96884 
462 1 46.5625 62.8124 10.0001 
463 1 48.5937 60.7812 7.96884 
464 1 50.625 62.8124 10.0001 
465 1 52.6562 60.7812 7.96884 
466 1 54.6875 62.8124 10.0001 
467 1 56.7187 60.7812 7.96884 
468 1 58.75 62.8124 10.0001 
469 1 60.7812 60.7812 7.96884 
470 1 62.8124 62.8124 10.0001 
471 1 64.8437 60.7812 7.96884 
472 1 66.8749 62.8124 10.0001 
473 1 68.9062 60.7812 7.96884 
474 1 70.9374 62.8124 10.0001 
475 1 72.9687 60.7812 7.96884 
476 1 74.9999 62.8124 10.0001 
477 1 7.96884 64.8437 7.96884 
478 1 10.0001 66.8749 10.0001 
479 1 12.0313 64.8437 7.96884 
480 1 14.0626 66.8749 10.0001 
481 1 16.0938 64.8437 7.96884 
482 1 18.1251 66.8749 10.0001 
483 1 20.1563 64.8437 7.96884 
484 1 22.1876 66.8749 10.0001 
485 1 24.2188 64.8437 7.96884 
486 1 26.25 66.8749 10.0001 
487 1 28.2813 64.8437 7.96884 
488 1 30.3125 66.8749 10.0001 
489 1 32.3438 64.8437 7.96884 
490 1 34.375 66.8749 10.0001 
491 1 36.4063 64.8437 7.96884 
492 1 38.4375 66.8749 10.0001 
493 1 40.4688 64.8437 7.96884 
494 1 42.5 66.8749 10.0001 
495 1 44.5312 64.8437 7.96884 
496 1 46.5625 66.8749 10.0001 
497 1 48.5937 64.8437 7.96884 
498 1 50.625 66.8749 10.0001 
499 1 52.6562 64.8437 7.96884 
500 1 54.6875 66.8749 10.0001 
501 1 56.7187 64.8437 7.96884 
502 1 58.75 66.8749 10.0001 
503 1 60.7812 64.8437 7.96884 
504 1 62.8124 66.8749 10.0001 
505 1 64.8437 64.8437 7.96884 
506 1 66.8749 66.8749 10.0001 
507 1 68.9062 64.8437 7.96884 
508 1 70.9374 66.8749 10.0001 
509 1 72.9687 64.8437 7.96884 
510 1 74.9999 66.8749 10.0001 
511 1 7.96884 68.9062 7.96884 
512 1 10.0001 70.9374 10.0001 
513 1 12.0313 68.9062 7.96884 
514 1 14.0626 70.9374 10.0001 
515 1 16.0938 68.9062 7.96884 
516 1 18.1251 70.9374 10.0001 
517 1 20.1563 68.9062 7.96884 
518 1 22.1876 70.9374 10.0001 
519 1 24.2188 68.9062 7.96884 
520 1 26.25 70.9374 10.0001 
521 1 28.2813 68.9062 7.96884 
522 1 30.3125 70.9374 10.0001 
523 1 32.3438 68.9062 7.96884 
524 1 34.375 70.9374 10.0001 
525 1 36.4063 68.9062 7.96884 
526 1 38.4375 70.9374 10.0001 
527 1 40.4688 68.9062 7.96884 
528 1 42.5 70.9374 10.0001 
529 1 44.5312 68.9062 7.96884 
530 1 46.5625 70.9374 10.0001 
531 1 48.5937 68.9062 7.96884 
532 1 50.625 70.9374 10.0001 
533 1 52.6562 68.9062 7.96884 
534 1 54.6875 70.9374 10.0001 
535 1 56.7187 68.9062 7.96884 
536 1 58.75 70.9374 10.0001 
537 1 60.7812 68.9062 7.96884 
538 1 62.8124 70.9374 10.0001 
539 1 64.8437 68.9062 7.96884 
540 1 66.8749 70.9374 10.0001 
541 1 68.9062 68.9062 7.96884 
542 1 70.9374 70.9374 10.0001 
543 1 72.9687 68.9062 7.96884 
544 1 74.9999 70.9374 10.0001 
545 1 7.96884 72.9687 7.96884 
546 1 10.0001 74.9999 10.0001 
547 1 12.0313 72.9687 7.96884 
548 1 14.0626 74.9999 10.0001 
549 1 16.0938 72.9687 7.96884 
550 1 18.1251 74.9999 10.0001 
551 1 20.1563 72.9687 7.96884 
552 1 22.1876 74.9999 10.0001 
553 1 24.2188 72.9687 7.96884 
554 1 26.25 74.9999 10.0001 
555 1 28.2813 72.9687 7.96884 
556 1 30.3125 74.9999 10.0001 
557 1 32.3438 72.9687 7.96884 
558 1 34.375 74.9999 10.0001 
559 1 36.4063 72.9687 7.96884 
560 1 38.4375 74.9999 10.0001 
561 1 40.4688 72.9687 7.96884 
562 1 42.5 74.9999 10.0001 
563 1 44.5312 72.9687 7.96884 
564 1 46.5625 74.9999 10.0001 
565 1 48.5937 72.9687 7.96884 
566 1 50.625 74.9999 10.0001 
567 1 52.6562 72.9687 7.96884 
568 1 54.6875 74.9999 10.0001 
569 1 56.7187 72.9687 7.96884 
570 1 58.75 74.9999 10.0001 
571 1 60.7812 72.9687 7.96884 
572 1 62.8124 74.9999 10.0001 
573 1 64.8437 72.9687 7.96884 
574 1 66.8749 74.9999 10.0001 
575 1 68.9062 72.9687 7.96884 
576 1 70.9374 74.9999 10.0001 
577 1 72.9687 72.9687 7.96884 
578 1 74.9999 74.9999 10.0001 
579 1 7.96884 7.96884 12.0313 
580 1 10.0001 10.0001 14.0626 
581 1 12.0313 7.96884 12.0313 
582 1 14.0626 10.0001 14.0626 
583 1 16.0938 7.96884 12.0313 
584 1 18.1251 10.0001 14.0626 
585 1 20.1563 7.96884 12.0313 
586 1 22.1876 10.0001 14.0626 
587 1 24.2188 7.96884 12.0313 
588 1 26.25 10.0001 14.0626 
589 1 28.2813 7.96884 12.0313 
590 1 30.3125 10.0001 14.0626 
591 1 32.3438 7.96884 12.0313 
592 1 34.375 10.0001 14.0626 
593 1 36.4063 7.96884 12.0313 
594 1 38.4375 10.0001 14.0626 
595 1 40.4688 7.96884 12.0313 
596 1 42.5 10.0001 14.0626 
597 1 44.5312 7.96884 12.0313 
598 1 46.5625 10.0001 14.0626 
599 1 48.5937 7.96884 12.0313 
600 1 50.625 10.0001 14.0626 
601 1 52.6562 7.96884 12.0313 
602 1 54.6875 10.0001 14.0626 
603 1 56.7187 7.96884 12.0313 
604 1 58.75 10.0001 14.0626 
605 1 60.7812 7.96884 12.0313 
606 1 62.8124 10.0001 14.0626 
607 1 64.8437 7.96884 12.0313 
608 1 66.8749 10.0001 14.0626 
609 1 68.9062 7.96884 12.0313 
610 1 70.9374 10.0001 14.0626 
611 1 72.9687 7.96884 12.0313 
612 1 74.9999 10.0001 14.0626 
613 1 7.96884 12.0313 12.0313 
614 1 10.0001 14.0626 14.0626 
615 1 12.0313 12.0313 12.0313 
616 1 14.0626 14.0626 14.0626 
617 1 16.0938 12.0313 12.0313 
618 1 18.1251 14.0626 14.0626 
619 1 20.1563 12.0313 12.0313 
620 1 22.1876 14.0626 14.0626 
621 1 24.2188 12.0313 12.0313 
622 1 26.25 14.0626 14.0626 
623 1 28.2813 12.0313 12.0313 
624 1 30.3125 14.0626 14.0626 
625 1 32.3438 12.0313 12.0313 
626 1 34.375 14.0626 14.0626 
627 1 36.4063 12.0313 12.0313 
628 1 38.4375 14.0626 14.0626 
629 1 40.4688 12.0313 12.0313 
630 1 42.5 14.0626 14.0626 
631 1 44.5312 12.0313 12.0313 
632 1 46.5625 14.0626 14.0626 
633 1 48.5937 12.0313 12.0313 
634 1 50.625 14.0626 14.0626 
635 1 52.6562 12.0313 12.0313 
636 1 54.6875 14.0626 14.0626 
637 1 56.7187 12.0313 12.0313 
638 1 58.75 14.0626 14.0626 
639 1 60.7812 12.0313 12.0313 
640 1 62.8124 14.0626 14.0626 
641 1 64.8437 12.0313 12.0313 
642 1 66.8749 14.0626 14.0626 
643 1 68.9062 12.0313 12.0313 
644 1 70.9374 14.0626 14.0626 
645 1 72.9687 12.0313 12.0313 
646 1 74.9999 14.0626 14.0626 
647 1 7.96884 16.0938 12.0313 
648 1 10.0001 18.1251 14.0626 
649 1 12.0313 16.0938 12.0313 
650 1 14.0626 18.1251 14.0626 
651 1 16.0938 16.0938 12.0313 
652 1 18.1251 18.1251 14.0626 
653 1 20.1563 16.0938 12.0313 
654 1 22.1876 18.1251 14.0626 
655 1 24.2188 16.0938 12.0313 
656 1 26.25 18.1251 14.0626 
657 1 28.2813 16.0938 12.0313 
658 1 30.3125 18.1251 14.0626 
659 1 32.3438 16.0938 12.0313 
660 1 34.375 18.1251 14.0626 
661 1 36.4063 16.0938 12.0313 
662 1 38.4375 18.1251 14.0626 
663 1 40.4688 16.0938 12.0313 
664 1 42.5 18.1251 14.0626 
665 1 44.5312 16.0938 12.0313 
666 1 46.5625 18.1251 14.0626 
667 1 48.5937 16.0938 12.0313 
668 1 50.625 18.1251 14.0626 
669 1 52.6562 16.0938 12.0313 
670 1 54.6875 18.1251 14.0626 
671 1 56.7187 16.0938 12.0313 
672 1 58.75 18.1251 14.0626 
673 1 60.7812 16.0938 12.0313 
674 1 62.8124 18.1251 14.0626 
675 1 64.8437 16.0938 12.0313 
676 1 66.8749 18.1251 14.0626 
677 1 68.9062 16.0938 12.0313 
678 1 70.9374 18.1251 14.0626 
679 1 72.9687 16.0938 12.0313 
680 1 74.9999 18.1251 14.0626 
681 1 7.96884 20.1563 12.0313 
682 1 10.0001 22.1876 14.0626 
683 1 12.0313 20.1563 12.0313 
684 1 14.0626 22.1876 14.0626 
685 1 16.0938 20.1563 12.0313 
686 1 18.1251 22.1876 14.0626 
687 1 20.1563 20.1563 12.0313 
688 1 22.1876 22.1876 14.0626 
689 1 24.2188 20.1563 12.0313 
690 1 26.25 22.1876 14.0626 
691 1 28.2813 20.1563 12.0313 
692 1 30.3125 22.1876 14.0626 
693 1 32.3438 20.1563 12.0313 
694 1 34.375 22.1876 14.0626 
695 1 36.4063 20.1563 12.0313 
696 1 38.4375 22.1876 14.0626 
697 1 40.4688 20.1563 12.0313 
698 1 42.5 22.1876 14.0626 
699 1 44.5312 20.1563 12.0313 
700 1 46.5625 22.1876 14.0626 
701 1 48.5937 20.1563 12.0313 
702 1 50.625 22.1876 14.0626 
703 1 52.6562 20.1563 12.0313 
704 1 54.6875 22.1876 14.0626 
705 1 56.7187 20.1563 12.0313 
706 1 58.75 22.1876 14.0626 
707 1 60.7812 20.1563 12.0313 
708 1 62.8124 22.1876 14.0626 
709 1 64.8437 20.1563 12.0313 
710 1 66.8749 22.1876 14.0626 
711 1 68.9062 20.1563 12.0313 
712 1 70.9374 22.1876 14.0626 
713 1 72.9687 20.1563 12.0313 
714 1 74.9999 22.1876 14.0626 
715 1 7.96884 24.2188 12.0313 
716 1 10.0001 26.25 14.0626 
717 1 12.0313 24.2188 12.0313 
718 1 14.0626 26.25 14.0626 
719 1 16.0938 24.2188 12.0313 
720 1 18.1251 26.25 14.0626 
721 1 20.1563 24.2188 12.0313 
722 1 22.1876 26.25 14.0626 
723 1 24.2188 24.2188 12.0313 
724 1 26.25 26.25 14.0626 
725 1 28.2813 24.2188 12.0313 
726 1 30.3125 26.25 14.0626 
727 1 32.3438 24.2188 12.0313 
728 1 34.375 26.25 14.0626 
729 1 36.4063 24.2188 12.0313 
730 1 38.4375 26.25 14.0626 
731 1 40.4688 24.2188 12.0313 
732 1 42.5 26.25 14.0626 
733 1 44.5312 24.2188 12.0313 
734 1 46.5625 26.25 14.0626 
735 1 48.5937 24.2188 12.0313 
736 1 50.625 26.25 14.0626 
737 1 52.6562 24.2188 12.0313 
738 1 54.6875 26.25 14.0626 
739 1 56.7187 24.2188 12.0313 
740 1 58.75 26.25 14.0626 
741 1 60.7812 24.2188 12.0313 
742 1 62.8124 26.25 14.0626 
743 1 64.8437 24.2188 12.0313 
744 1 66.8749 26.25 14.0626 
745 1 68.9062 24.2188 12.0313 
746 1 70.9374 26.25 14.0626 
747 1 72.9687 24.2188 12.0313 
748 1 74.9999 26.25 14.0626 
749 1 7.96884 28.2813 12.0313 
750 1 10.0001 30.3125 14.0626 
751 1 12.0313 28.2813 12.0313 
752 1 14.0626 30.3125 14.0626 
753 1 16.0938 28.2813 12.0313 
754 1 18.1251 30.3125 14.0626 
755 1 20.1563 28.2813 12.0313 
756 1 22.1876 30.3125 14.0626 
757 1 24.2188 28.2813 12.0313 
758 1 26.25 30.3125 14.0626 
759 1 28.2813 28.2813 12.0313 
760 1 30.3125 30.3125 14.0626 
761 1 32.3438 28.2813 12.0313 
762 1 34.375 30.3125 14.0626 
763 1 36.4063 28.2813 12.0313 
764 1 38.4375 30.3125 14.0626 
765 1 40.4688 28.2813 12.0313 
766 1 42.5 30.3125 14.0626 
767 1 44.5312 28.2813 12.0313 
768 1 46.5625 30.3125 14.0626 
769 1 48.5937 28.2813 12.0313 
770 1 50.625 30.3125 14.0626 
771 1 52.6562 28.2813 12.0313 
772 1 54.6875 30.3125 14.0626 
773 1 56.7187 28.2813 12.0313 
774 1 58.75 30.3125 14.0626 
775 1 60.7812 28.2813 12.0313 
776 1 62.8124 30.3125 14.0626 
777 1 64.8437 28.2813 12.0313 
778 1 66.8749 30.3125 14.0626 
779 1 68.9062 28.2813 12.0313 
780 1 70.9374 30.3125 14.0626 
781 1 72.9687 28.2813 12.0313 
782 1 74.9999 30.3125 14.0626 
783 1 7.96884 32.3438 12.0313 
784 1 10.0001 34.375 14.0626 
785 1 12.0313 32.3438 12.0313 
786 1 14.0626 34.375 14.0626 
787 1 16.0938 32.3438 12.0313 
788 1 18.1251 34.375 14.0626 
789 1 20.1563 32.3438 12.0313 
790 1 22.1876 34.375 14.0626 
791 1 24.2188 32.3438 12.0313 
792 1 26.25 34.375 14.0626 
793 1 28.2813 32.3438 12.0313 
794 1 30.3125 34.375 14.0626 
795 1 32.3438 32.3438 12.0313 
796 1 34.375 34.375 14.0626 
797 1 36.4063 32.3438 12.0313 
798 1 38.4375 34.375 14.0626 
799 1 40.4688 32.3438 12.0313 
800 1 42.5 34.375 14.0626 
801 1 44.5312 32.3438 12.0313 
802 1 46.5625 34.375 14.0626 
803 1 48.5937 32.3438 12.0313 
804 1 50.625 34.375 14.0626 
805 1 52.6562 32.3438 12.0313 
806 1 54.6875 34.375 14.0626 
807 1 56.7187 32.3438 12.0313 
808 1 58.75 34.375 14.0626 
809 1 60.7812 32.3438 12.0313 
810 1 62.8124 34.375 14.0626 
811 1 64.8437 32.3438 12.0313 
812 1 66.8749 34.375 14.0626 
813 1 68.9062 32.3438 12.0313 
814 1 70.9374 34.375 14.0626 
815 1 72.9687 32.3438 12.0313 
816 1 74.9999 34.375 14.0626 
817 1 7.96884 36.4063 12.0313 
818 1 10.0001 38.4375 14.0626 
819 1 12.0313 36.4063 12.0313 
820 1 14.0626 38.4375 14.0626 
821 1 16.0938 36.4063 12.0313 
822 1 18.1251 38.4375 14.0626 
823 1 20.1563 36.4063 12.0313 
824 1 22.1876 38.4375 14.0626 
825 1 24.2188 36.4063 12.0313 
826 1 26.25 38.4375 14.0626 
827 1 28.2813 36.4063 12.0313 
828 1 30.3125 38.4375 14.0626 
829 1 32.3438 36.4063 12.0313 
830 1 34.375 38.4375 14.0626 
831 1 36.4063 36.4063 12.0313 
832 1 38.4375 38.4375 14.0626 
833 1 40.4688 36.4063 12.0313 
834 1 42.5 38.4375 14.0626 
835 1 44.5312 36.4063 12.0313 
836 1 46.5625 38.4375 14.0626 
837 1 48.5937 36.4063 12.0313 
838 1 50.625 38.4375 14.0626 
839 1 52.6562 36.4063 12.0313 
840 1 54.6875 38.4375 14.0626 
841 1 56.7187 36.4063 12.0313 
842 1 58.75 38.4375 14.0626 
843 1 60.7812 36.4063 12.0313 
844 1 62.8124 38.4375 14.0626 
845 1 64.8437 36.4063 12.0313 
846 1 66.8749 38.4375 14.0626 
847 1 68.9062 36.4063 12.0313 
848 1 70.9374 38.4375 14.0626 
849 1 72.9687 36.4063 12.0313 
850 1 74.9999 38.4375 14.0626 
851 1 7.96884 40.4688 12.0313 
852 1 10.0001 42.5 14.0626 
853 1 12.0313 40.4688 12.0313 
854 1 14.0626 42.5 14.0626 
855 1 16.0938 40.4688 12.0313 
856 1 18.1251 42.5 14.0626 
857 1 20.1563 40.4688 12.0313 
858 1 22.1876 42.5 14.0626 
859 1 24.2188 40.4688 12.0313 
860 1 26.25 42.5 14.0626 
861 1 28.2813 40.4688 12.0313 
862 1 30.3125 42.5 14.0626 
863 1 32.3438 40.4688 12.0313 
864 1 34.375 42.5 14.0626 
865 1 36.4063 40.4688 12.0313 
866 1 38.4375 42.5 14.0626 
867 1 40.4688 40.4688 12.0313 
868 1 42.5 42.5 14.0626 
869 1 44.5312 40.4688 12.0313 
870 1 46.5625 42.5 14.0626 
871 1 48.5937 40.4688 12.0313 
872 1 50.625 42.5 14.0626 
873 1 52.6562 40.4688 12.0313 
874 1 54.6875 42.5 14.0626 
875 1 56.7187 40.4688 12.0313 
876 1 58.75 42.5 14.0626 
877 1 60.7812 40.4688 12.0313 
878 1 62.8124 42.5 14.0626 
879 1 64.8437 40.4688 12.0313 
880 1 66.8749 42.5 14.0626 
881 1 68.9062 40.4688 12.0313 
882 1 70.9374 42.5 14.0626 
883 1 72.9687 40.4688 12.0313 
884 1 74.9999 42.5 14.0626 
885 1 7.96884 44.5312 12.0313 
886 1 10.0001 46.5625 14.0626 
887 1 12.0313 44.5312 12.0313 
888 1 14.0626 46.5625 14.0626 
889 1 16.0938 44.5312 12.0313 
890 1 18.1251 46.5625 14.0626 
891 1 20.1563 44.5312 12.0313 
892 1 22.1876 46.5625 14.0626 
893 1 24.2188 44.5312 12.0313 
894 1 26.25 46.5625 14.0626 
895 1 28.2813 44.5312 12.0313 
896 1 30.3125 46.5625 14.0626 
897 1 32.3438 44.5312 12.0313 
898 1 34.375 46.5625 14.0626 
899 1 36.4063 44.5312 12.0313 
900 1 38.4375 46.5625 14.0626 
901 1 40.4688 44.5312 12.0313 
902 1 42.5 46.5625 14.0626 
903 1 44.5312 44.5312 12.0313 
904 1 46.5625 46.5625 14.0626 
905 1 48.5937 44.5312 12.0313 
906 1 50.625 46.5625 14.0626 
907 1 52.6562 44.5312 12.0313 
908 1 54.6875 46.5625 14.0626 
909 1 56.7187 44.5312 12.0313 
910 1 58.75 46.5625 14.0626 
911 1 60.7812 44.5312 12.0313 
912 1 62.8124 46.5625 14.0626 
913 1 64.8437 44.5312 12.0313 
914 1 66.8749 46.5625 14.0626 
915 1 68.9062 44.5312 12.0313 
916 1 70.9374 46.5625 14.0626 
917 1 72.9687 44.5312 12.0313 
918 1 74.9999 46.5625 14.0626 
919 1 7.96884 48.5937 12.0313 
920 1 10.0001 50.625 14.0626 
921 1 12.0313 48.5937 12.0313 
922 1 14.0626 50.625 14.0626 
923 1 16.0938 48.5937 12.0313 
924 1 18.1251 50.625 14.0626 
925 1 20.1563 48.5937 12.0313 
926 1 22.1876 50.625 14.0626 
927 1 24.2188 48.5937 12.0313 
928 1 26.25 50.625 14.0626 
929 1 28.2813 48.5937 12.0313 
930 1 30.3125 50.625 14.0626 
931 1 32.3438 48.5937 12.0313 
932 1 34.375 50.625 14.0626 
933 1 36.4063 48.5937 12.0313 
934 1 38.4375 50.625 14.0626 
935 1 40.4688 48.5937 12.0313 
936 1 42.5 50.625 14.0626 
937 1 44.5312 48.5937 12.0313 
938 1 46.5625 50.625 14.0626 
939 1 48.5937 48.5937 12.0313 
940 1 50.625 50.625 14.0626 
941 1 52.6562 48.5937 12.0313 
942 1 54.6875 50.625 14.0626 
943 1 56.7187 48.5937 12.0313 
944 1 58.75 50.625 14.0626 
945 1 60.7812 48.5937 12.0313 
946 1 62.8124 50.625 14.0626 
947 1 64.8437 48.5937 12.0313 
948 1 66.8749 50.625 14.0626 
949 1 68.9062 48.5937 12.0313 
950 1 70.9374 50.625 14.0626 
951 1 72.9687 48.5937 12.0313 
952 1 74.9999 50.625 14.0626 
953 1 7.96884 52.6562 12.0313 
954 1 10.0001 54.6875 14.0626 
955 1 12.0313 52.6562 12.0313 
956 1 14.0626 54.6875 14.0626 
957 1 16.0938 52.6562 12.0313 
958 1 18.1251 54.6875 14.0626 
959 1 20.1563 52.6562 12.0313 
960 1 22.1876 54.6875 14.0626 
961 1 24.2188 52.6562 12.0313 
962 1 26.25 54.6875 14.0626 
963 1 28.2813 52.6562 12.0313 
964 1 30.3125 54.6875 14.0626 
965 1 32.3438 52.6562 12.0313 
966 1 34.375 54.6875 14.0626 
967 1 36.4063 52.6562 12.0313 
968 1 38.4375 54.6875 14.0626 
969 1 40.4688 52.6562 12.0313 
970 1 42.5 54.6875 14.0626 
971 1 44.5312 52.6562 12.0313 
972 1 46.5625 54.6875 14.0626 
973 1 48.5937 52.6562 12.0313 
974 1 50.625 54.6875 14.0626 
975 1 52.6562 52.6562 12.0313 
976 1 54.6875 54.6875 14.0626 
977 1 56.7187 52.6562 12.0313 
978 1 58.75 54.6875 14.0626 
979 1 60.7812 52.6562 12.0313 
980 1 62.8124 54.6875 14.0626 