ITEM: TIMESTEP
91
ITEM: NUMBER OF ATOMS
9826
ITEM: BOX BOUNDS pp pp pp
1.8800936775415664e+01 6.6199063224584023e+01
1.8800936775415664e+01 6.6199063224584023e+01
1.8800936775415664e+01 6.6199063224584023e+01
ITEM: ATOMS id type xu yu zu 
1 2 18.8009 18.8009 18.8009 
2 2 20.195 20.195 20.195 
3 2 21.5891 18.8009 18.8009 
4 2 22.9831 20.195 20.195 
5 2 24.3772 18.8009 18.8009 
6 2 25.7712 20.195 20.195 
7 2 27.1653 18.8009 18.8009 
8 2 28.5594 20.195 20.195 
9 2 29.9534 18.8009 18.8009 
10 2 31.3475 20.195 20.195 
11 2 32.7416 18.8009 18.8009 
12 2 34.1356 20.195 20.195 
13 2 35.5297 18.8009 18.8009 
14 2 36.9237 20.195 20.195 
15 2 38.3178 18.8009 18.8009 
16 2 39.7119 20.195 20.195 
17 2 41.1059 18.8009 18.8009 
18 2 42.5 20.195 20.195 
19 2 43.8941 18.8009 18.8009 
20 2 45.2881 20.195 20.195 
21 2 46.6822 18.8009 18.8009 
22 2 48.0763 20.195 20.195 
23 2 49.4703 18.8009 18.8009 
24 2 50.8644 20.195 20.195 
25 2 52.2584 18.8009 18.8009 
26 2 53.6525 20.195 20.195 
27 2 55.0466 18.8009 18.8009 
28 2 56.4406 20.195 20.195 
29 2 57.8347 18.8009 18.8009 
30 2 59.2288 20.195 20.195 
31 2 60.6228 18.8009 18.8009 
32 2 62.0169 20.195 20.195 
33 2 63.4109 18.8009 18.8009 
34 2 64.805 20.195 20.195 
35 2 18.8009 21.5891 18.8009 
36 2 20.195 22.9831 20.195 
37 2 21.5891 21.5891 18.8009 
38 2 22.9831 22.9831 20.195 
39 2 24.3772 21.5891 18.8009 
40 2 25.7712 22.9831 20.195 
41 2 27.1653 21.5891 18.8009 
42 2 28.5594 22.9831 20.195 
43 2 29.9534 21.5891 18.8009 
44 2 31.3475 22.9831 20.195 
45 2 32.7416 21.5891 18.8009 
46 2 34.1356 22.9831 20.195 
47 2 35.5297 21.5891 18.8009 
48 2 36.9237 22.9831 20.195 
49 2 38.3178 21.5891 18.8009 
50 2 39.7119 22.9831 20.195 
51 2 41.1059 21.5891 18.8009 
52 2 42.5 22.9831 20.195 
53 2 43.8941 21.5891 18.8009 
54 2 45.2881 22.9831 20.195 
55 2 46.6822 21.5891 18.8009 
56 2 48.0763 22.9831 20.195 
57 2 49.4703 21.5891 18.8009 
58 2 50.8644 22.9831 20.195 
59 2 52.2584 21.5891 18.8009 
60 2 53.6525 22.9831 20.195 
61 2 55.0466 21.5891 18.8009 
62 2 56.4406 22.9831 20.195 
63 2 57.8347 21.5891 18.8009 
64 2 59.2288 22.9831 20.195 
65 2 60.6228 21.5891 18.8009 
66 2 62.0169 22.9831 20.195 
67 2 63.4109 21.5891 18.8009 
68 2 64.805 22.9831 20.195 
69 2 18.8009 24.3772 18.8009 
70 2 20.195 25.7712 20.195 
71 2 21.5891 24.3772 18.8009 
72 2 22.9831 25.7712 20.195 
73 2 24.3772 24.3772 18.8009 
74 2 25.7712 25.7712 20.195 
75 2 27.1653 24.3772 18.8009 
76 2 28.5594 25.7712 20.195 
77 2 29.9534 24.3772 18.8009 
78 2 31.3475 25.7712 20.195 
79 2 32.7416 24.3772 18.8009 
80 2 34.1356 25.7712 20.195 
81 2 35.5297 24.3772 18.8009 
82 2 36.9237 25.7712 20.195 
83 2 38.3178 24.3772 18.8009 
84 2 39.7119 25.7712 20.195 
85 2 41.1059 24.3772 18.8009 
86 2 42.5 25.7712 20.195 
87 2 43.8941 24.3772 18.8009 
88 2 45.2881 25.7712 20.195 
89 2 46.6822 24.3772 18.8009 
90 2 48.0763 25.7712 20.195 
91 2 49.4703 24.3772 18.8009 
92 2 50.8644 25.7712 20.195 
93 2 52.2584 24.3772 18.8009 
94 2 53.6525 25.7712 20.195 
95 2 55.0466 24.3772 18.8009 
96 2 56.4406 25.7712 20.195 
97 2 57.8347 24.3772 18.8009 
98 2 59.2288 25.7712 20.195 
99 2 60.6228 24.3772 18.8009 
100 2 62.0169 25.7712 20.195 
101 2 63.4109 24.3772 18.8009 
102 2 64.805 25.7712 20.195 
103 2 18.8009 27.1653 18.8009 
104 2 20.195 28.5594 20.195 
105 2 21.5891 27.1653 18.8009 
106 2 22.9831 28.5594 20.195 
107 2 24.3772 27.1653 18.8009 
108 2 25.7712 28.5594 20.195 
109 2 27.1653 27.1653 18.8009 
110 2 28.5594 28.5594 20.195 
111 2 29.9534 27.1653 18.8009 
112 2 31.3475 28.5594 20.195 
113 2 32.7416 27.1653 18.8009 
114 2 34.1356 28.5594 20.195 
115 2 35.5297 27.1653 18.8009 
116 2 36.9237 28.5594 20.195 
117 2 38.3178 27.1653 18.8009 
118 2 39.7119 28.5594 20.195 
119 2 41.1059 27.1653 18.8009 
120 2 42.5 28.5594 20.195 
121 2 43.8941 27.1653 18.8009 
122 2 45.2881 28.5594 20.195 
123 2 46.6822 27.1653 18.8009 
124 2 48.0763 28.5594 20.195 
125 2 49.4703 27.1653 18.8009 
126 2 50.8644 28.5594 20.195 
127 2 52.2584 27.1653 18.8009 
128 2 53.6525 28.5594 20.195 
129 2 55.0466 27.1653 18.8009 
130 2 56.4406 28.5594 20.195 
131 2 57.8347 27.1653 18.8009 
132 2 59.2288 28.5594 20.195 
133 2 60.6228 27.1653 18.8009 
134 2 62.0169 28.5594 20.195 
135 2 63.4109 27.1653 18.8009 
136 2 64.805 28.5594 20.195 
137 2 18.8009 29.9534 18.8009 
138 2 20.195 31.3475 20.195 
139 2 21.5891 29.9534 18.8009 
140 2 22.9831 31.3475 20.195 
141 2 24.3772 29.9534 18.8009 
142 2 25.7712 31.3475 20.195 
143 2 27.1653 29.9534 18.8009 
144 2 28.5594 31.3475 20.195 
145 2 29.9534 29.9534 18.8009 
146 2 31.3475 31.3475 20.195 
147 2 32.7416 29.9534 18.8009 
148 2 34.1356 31.3475 20.195 
149 2 35.5297 29.9534 18.8009 
150 2 36.9237 31.3475 20.195 
151 2 38.3178 29.9534 18.8009 
152 2 39.7119 31.3475 20.195 
153 2 41.1059 29.9534 18.8009 
154 2 42.5 31.3475 20.195 
155 2 43.8941 29.9534 18.8009 
156 2 45.2881 31.3475 20.195 
157 2 46.6822 29.9534 18.8009 
158 2 48.0763 31.3475 20.195 
159 2 49.4703 29.9534 18.8009 
160 2 50.8644 31.3475 20.195 
161 2 52.2584 29.9534 18.8009 
162 2 53.6525 31.3475 20.195 
163 2 55.0466 29.9534 18.8009 
164 2 56.4406 31.3475 20.195 
165 2 57.8347 29.9534 18.8009 
166 2 59.2288 31.3475 20.195 
167 2 60.6228 29.9534 18.8009 
168 2 62.0169 31.3475 20.195 
169 2 63.4109 29.9534 18.8009 
170 2 64.805 31.3475 20.195 
171 2 18.8009 32.7416 18.8009 
172 2 20.195 34.1356 20.195 
173 2 21.5891 32.7416 18.8009 
174 2 22.9831 34.1356 20.195 
175 2 24.3772 32.7416 18.8009 
176 2 25.7712 34.1356 20.195 
177 2 27.1653 32.7416 18.8009 
178 2 28.5594 34.1356 20.195 
179 2 29.9534 32.7416 18.8009 
180 2 31.3475 34.1356 20.195 
181 2 32.7416 32.7416 18.8009 
182 2 34.1356 34.1356 20.195 
183 2 35.5297 32.7416 18.8009 
184 2 36.9237 34.1356 20.195 
185 2 38.3178 32.7416 18.8009 
186 2 39.7119 34.1356 20.195 
187 2 41.1059 32.7416 18.8009 
188 2 42.5 34.1356 20.195 
189 2 43.8941 32.7416 18.8009 
190 2 45.2881 34.1356 20.195 
191 2 46.6822 32.7416 18.8009 
192 2 48.0763 34.1356 20.195 
193 2 49.4703 32.7416 18.8009 
194 2 50.8644 34.1356 20.195 
195 2 52.2584 32.7416 18.8009 
196 2 53.6525 34.1356 20.195 
197 2 55.0466 32.7416 18.8009 
198 2 56.4406 34.1356 20.195 
199 2 57.8347 32.7416 18.8009 
200 2 59.2288 34.1356 20.195 
201 2 60.6228 32.7416 18.8009 
202 2 62.0169 34.1356 20.195 
203 2 63.4109 32.7416 18.8009 
204 2 64.805 34.1356 20.195 
205 2 18.8009 35.5297 18.8009 
206 2 20.195 36.9237 20.195 
207 2 21.5891 35.5297 18.8009 
208 2 22.9831 36.9237 20.195 
209 2 24.3772 35.5297 18.8009 
210 2 25.7712 36.9237 20.195 
211 2 27.1653 35.5297 18.8009 
212 2 28.5594 36.9237 20.195 
213 2 29.9534 35.5297 18.8009 
214 2 31.3475 36.9237 20.195 
215 2 32.7416 35.5297 18.8009 
216 2 34.1356 36.9237 20.195 
217 2 35.5297 35.5297 18.8009 
218 2 36.9237 36.9237 20.195 
219 2 38.3178 35.5297 18.8009 
220 2 39.7119 36.9237 20.195 
221 2 41.1059 35.5297 18.8009 
222 2 42.5 36.9237 20.195 
223 2 43.8941 35.5297 18.8009 
224 2 45.2881 36.9237 20.195 
225 2 46.6822 35.5297 18.8009 
226 2 48.0763 36.9237 20.195 
227 2 49.4703 35.5297 18.8009 
228 2 50.8644 36.9237 20.195 
229 2 52.2584 35.5297 18.8009 
230 2 53.6525 36.9237 20.195 
231 2 55.0466 35.5297 18.8009 
232 2 56.4406 36.9237 20.195 
233 2 57.8347 35.5297 18.8009 
234 2 59.2288 36.9237 20.195 
235 2 60.6228 35.5297 18.8009 
236 2 62.0169 36.9237 20.195 
237 2 63.4109 35.5297 18.8009 
238 2 64.805 36.9237 20.195 
239 2 18.8009 38.3178 18.8009 
240 2 20.195 39.7119 20.195 
241 2 21.5891 38.3178 18.8009 
242 2 22.9831 39.7119 20.195 
243 2 24.3772 38.3178 18.8009 
244 2 25.7712 39.7119 20.195 
245 2 27.1653 38.3178 18.8009 
246 2 28.5594 39.7119 20.195 
247 2 29.9534 38.3178 18.8009 
248 2 31.3475 39.7119 20.195 
249 2 32.7416 38.3178 18.8009 
250 2 34.1356 39.7119 20.195 
251 2 35.5297 38.3178 18.8009 
252 2 36.9237 39.7119 20.195 
253 2 38.3178 38.3178 18.8009 
254 2 39.7119 39.7119 20.195 
255 2 41.1059 38.3178 18.8009 
256 2 42.5 39.7119 20.195 
257 2 43.8941 38.3178 18.8009 
258 2 45.2881 39.7119 20.195 
259 2 46.6822 38.3178 18.8009 
260 2 48.0763 39.7119 20.195 
261 2 49.4703 38.3178 18.8009 
262 2 50.8644 39.7119 20.195 
263 2 52.2584 38.3178 18.8009 
264 2 53.6525 39.7119 20.195 
265 2 55.0466 38.3178 18.8009 
266 2 56.4406 39.7119 20.195 
267 2 57.8347 38.3178 18.8009 
268 2 59.2288 39.7119 20.195 
269 2 60.6228 38.3178 18.8009 
270 2 62.0169 39.7119 20.195 
271 2 63.4109 38.3178 18.8009 
272 2 64.805 39.7119 20.195 
273 2 18.8009 41.1059 18.8009 
274 2 20.195 42.5 20.195 
275 2 21.5891 41.1059 18.8009 
276 2 22.9831 42.5 20.195 
277 2 24.3772 41.1059 18.8009 
278 2 25.7712 42.5 20.195 
279 2 27.1653 41.1059 18.8009 
280 2 28.5594 42.5 20.195 
281 2 29.9534 41.1059 18.8009 
282 2 31.3475 42.5 20.195 
283 2 32.7416 41.1059 18.8009 
284 2 34.1356 42.5 20.195 
285 2 35.5297 41.1059 18.8009 
286 2 36.9237 42.5 20.195 
287 2 38.3178 41.1059 18.8009 
288 2 39.7119 42.5 20.195 
289 2 41.1059 41.1059 18.8009 
290 2 42.5 42.5 20.195 
291 2 43.8941 41.1059 18.8009 
292 2 45.2881 42.5 20.195 
293 2 46.6822 41.1059 18.8009 
294 2 48.0763 42.5 20.195 
295 2 49.4703 41.1059 18.8009 
296 2 50.8644 42.5 20.195 
297 2 52.2584 41.1059 18.8009 
298 2 53.6525 42.5 20.195 
299 2 55.0466 41.1059 18.8009 
300 2 56.4406 42.5 20.195 
301 2 57.8347 41.1059 18.8009 
302 2 59.2288 42.5 20.195 
303 2 60.6228 41.1059 18.8009 
304 2 62.0169 42.5 20.195 
305 2 63.4109 41.1059 18.8009 
306 2 64.805 42.5 20.195 
307 2 18.8009 43.8941 18.8009 
308 2 20.195 45.2881 20.195 
309 2 21.5891 43.8941 18.8009 
310 2 22.9831 45.2881 20.195 
311 2 24.3772 43.8941 18.8009 
312 2 25.7712 45.2881 20.195 
313 2 27.1653 43.8941 18.8009 
314 2 28.5594 45.2881 20.195 
315 2 29.9534 43.8941 18.8009 
316 2 31.3475 45.2881 20.195 
317 2 32.7416 43.8941 18.8009 
318 2 34.1356 45.2881 20.195 
319 2 35.5297 43.8941 18.8009 
320 2 36.9237 45.2881 20.195 
321 2 38.3178 43.8941 18.8009 
322 2 39.7119 45.2881 20.195 
323 2 41.1059 43.8941 18.8009 
324 2 42.5 45.2881 20.195 
325 2 43.8941 43.8941 18.8009 
326 2 45.2881 45.2881 20.195 
327 2 46.6822 43.8941 18.8009 
328 2 48.0763 45.2881 20.195 
329 2 49.4703 43.8941 18.8009 
330 2 50.8644 45.2881 20.195 
331 2 52.2584 43.8941 18.8009 
332 2 53.6525 45.2881 20.195 
333 2 55.0466 43.8941 18.8009 
334 2 56.4406 45.2881 20.195 
335 2 57.8347 43.8941 18.8009 
336 2 59.2288 45.2881 20.195 
337 2 60.6228 43.8941 18.8009 
338 2 62.0169 45.2881 20.195 
339 2 63.4109 43.8941 18.8009 
340 2 64.805 45.2881 20.195 
341 2 18.8009 46.6822 18.8009 
342 2 20.195 48.0763 20.195 
343 2 21.5891 46.6822 18.8009 
344 2 22.9831 48.0763 20.195 
345 2 24.3772 46.6822 18.8009 
346 2 25.7712 48.0763 20.195 
347 2 27.1653 46.6822 18.8009 
348 2 28.5594 48.0763 20.195 
349 2 29.9534 46.6822 18.8009 
350 2 31.3475 48.0763 20.195 
351 2 32.7416 46.6822 18.8009 
352 2 34.1356 48.0763 20.195 
353 2 35.5297 46.6822 18.8009 
354 2 36.9237 48.0763 20.195 
355 2 38.3178 46.6822 18.8009 
356 2 39.7119 48.0763 20.195 
357 2 41.1059 46.6822 18.8009 
358 2 42.5 48.0763 20.195 
359 2 43.8941 46.6822 18.8009 
360 2 45.2881 48.0763 20.195 
361 2 46.6822 46.6822 18.8009 
362 2 48.0763 48.0763 20.195 
363 2 49.4703 46.6822 18.8009 
364 2 50.8644 48.0763 20.195 
365 2 52.2584 46.6822 18.8009 
366 2 53.6525 48.0763 20.195 
367 2 55.0466 46.6822 18.8009 
368 2 56.4406 48.0763 20.195 
369 2 57.8347 46.6822 18.8009 
370 2 59.2288 48.0763 20.195 
371 2 60.6228 46.6822 18.8009 
372 2 62.0169 48.0763 20.195 
373 2 63.4109 46.6822 18.8009 
374 2 64.805 48.0763 20.195 
375 2 18.8009 49.4703 18.8009 
376 2 20.195 50.8644 20.195 
377 2 21.5891 49.4703 18.8009 
378 2 22.9831 50.8644 20.195 
379 2 24.3772 49.4703 18.8009 
380 2 25.7712 50.8644 20.195 
381 2 27.1653 49.4703 18.8009 
382 2 28.5594 50.8644 20.195 
383 2 29.9534 49.4703 18.8009 
384 2 31.3475 50.8644 20.195 
385 2 32.7416 49.4703 18.8009 
386 2 34.1356 50.8644 20.195 
387 2 35.5297 49.4703 18.8009 
388 2 36.9237 50.8644 20.195 
389 2 38.3178 49.4703 18.8009 
390 2 39.7119 50.8644 20.195 
391 2 41.1059 49.4703 18.8009 
392 2 42.5 50.8644 20.195 
393 2 43.8941 49.4703 18.8009 
394 2 45.2881 50.8644 20.195 
395 2 46.6822 49.4703 18.8009 
396 2 48.0763 50.8644 20.195 
397 2 49.4703 49.4703 18.8009 
398 2 50.8644 50.8644 20.195 
399 2 52.2584 49.4703 18.8009 
400 2 53.6525 50.8644 20.195 
401 2 55.0466 49.4703 18.8009 
402 2 56.4406 50.8644 20.195 
403 2 57.8347 49.4703 18.8009 
404 2 59.2288 50.8644 20.195 
405 2 60.6228 49.4703 18.8009 
406 2 62.0169 50.8644 20.195 
407 2 63.4109 49.4703 18.8009 
408 2 64.805 50.8644 20.195 
409 2 18.8009 52.2584 18.8009 
410 2 20.195 53.6525 20.195 
411 2 21.5891 52.2584 18.8009 
412 2 22.9831 53.6525 20.195 
413 2 24.3772 52.2584 18.8009 
414 2 25.7712 53.6525 20.195 
415 2 27.1653 52.2584 18.8009 
416 2 28.5594 53.6525 20.195 
417 2 29.9534 52.2584 18.8009 
418 2 31.3475 53.6525 20.195 
419 2 32.7416 52.2584 18.8009 
420 2 34.1356 53.6525 20.195 
421 2 35.5297 52.2584 18.8009 
422 2 36.9237 53.6525 20.195 
423 2 38.3178 52.2584 18.8009 
424 2 39.7119 53.6525 20.195 
425 2 41.1059 52.2584 18.8009 
426 2 42.5 53.6525 20.195 
427 2 43.8941 52.2584 18.8009 
428 2 45.2881 53.6525 20.195 
429 2 46.6822 52.2584 18.8009 
430 2 48.0763 53.6525 20.195 
431 2 49.4703 52.2584 18.8009 
432 2 50.8644 53.6525 20.195 
433 2 52.2584 52.2584 18.8009 
434 2 53.6525 53.6525 20.195 
435 2 55.0466 52.2584 18.8009 
436 2 56.4406 53.6525 20.195 
437 2 57.8347 52.2584 18.8009 
438 2 59.2288 53.6525 20.195 
439 2 60.6228 52.2584 18.8009 
440 2 62.0169 53.6525 20.195 
441 2 63.4109 52.2584 18.8009 
442 2 64.805 53.6525 20.195 
443 2 18.8009 55.0466 18.8009 
444 2 20.195 56.4406 20.195 
445 2 21.5891 55.0466 18.8009 
446 2 22.9831 56.4406 20.195 
447 2 24.3772 55.0466 18.8009 
448 2 25.7712 56.4406 20.195 
449 2 27.1653 55.0466 18.8009 
450 2 28.5594 56.4406 20.195 
451 2 29.9534 55.0466 18.8009 
452 2 31.3475 56.4406 20.195 
453 2 32.7416 55.0466 18.8009 
454 2 34.1356 56.4406 20.195 
455 2 35.5297 55.0466 18.8009 
456 2 36.9237 56.4406 20.195 
457 2 38.3178 55.0466 18.8009 
458 2 39.7119 56.4406 20.195 
459 2 41.1059 55.0466 18.8009 
460 2 42.5 56.4406 20.195 
461 2 43.8941 55.0466 18.8009 
462 2 45.2881 56.4406 20.195 
463 2 46.6822 55.0466 18.8009 
464 2 48.0763 56.4406 20.195 
465 2 49.4703 55.0466 18.8009 
466 2 50.8644 56.4406 20.195 
467 2 52.2584 55.0466 18.8009 
468 2 53.6525 56.4406 20.195 
469 2 55.0466 55.0466 18.8009 
470 2 56.4406 56.4406 20.195 
471 2 57.8347 55.0466 18.8009 
472 2 59.2288 56.4406 20.195 
473 2 60.6228 55.0466 18.8009 
474 2 62.0169 56.4406 20.195 
475 2 63.4109 55.0466 18.8009 
476 2 64.805 56.4406 20.195 
477 2 18.8009 57.8347 18.8009 
478 2 20.195 59.2288 20.195 
479 2 21.5891 57.8347 18.8009 
480 2 22.9831 59.2288 20.195 
481 2 24.3772 57.8347 18.8009 
482 2 25.7712 59.2288 20.195 
483 2 27.1653 57.8347 18.8009 
484 2 28.5594 59.2288 20.195 
485 2 29.9534 57.8347 18.8009 
486 2 31.3475 59.2288 20.195 
487 2 32.7416 57.8347 18.8009 
488 2 34.1356 59.2288 20.195 
489 2 35.5297 57.8347 18.8009 
490 2 36.9237 59.2288 20.195 
491 2 38.3178 57.8347 18.8009 
492 2 39.7119 59.2288 20.195 
493 2 41.1059 57.8347 18.8009 
494 2 42.5 59.2288 20.195 
495 2 43.8941 57.8347 18.8009 
496 2 45.2881 59.2288 20.195 
497 2 46.6822 57.8347 18.8009 
498 2 48.0763 59.2288 20.195 
499 2 49.4703 57.8347 18.8009 
500 2 50.8644 59.2288 20.195 
501 2 52.2584 57.8347 18.8009 
502 2 53.6525 59.2288 20.195 
503 2 55.0466 57.8347 18.8009 
504 2 56.4406 59.2288 20.195 
505 2 57.8347 57.8347 18.8009 
506 2 59.2288 59.2288 20.195 
507 2 60.6228 57.8347 18.8009 
508 2 62.0169 59.2288 20.195 
509 2 63.4109 57.8347 18.8009 
510 2 64.805 59.2288 20.195 
511 2 18.8009 60.6228 18.8009 
512 2 20.195 62.0169 20.195 
513 2 21.5891 60.6228 18.8009 
514 2 22.9831 62.0169 20.195 
515 2 24.3772 60.6228 18.8009 
516 2 25.7712 62.0169 20.195 
517 2 27.1653 60.6228 18.8009 
518 2 28.5594 62.0169 20.195 
519 2 29.9534 60.6228 18.8009 
520 2 31.3475 62.0169 20.195 
521 2 32.7416 60.6228 18.8009 
522 2 34.1356 62.0169 20.195 
523 2 35.5297 60.6228 18.8009 
524 2 36.9237 62.0169 20.195 
525 2 38.3178 60.6228 18.8009 
526 2 39.7119 62.0169 20.195 
527 2 41.1059 60.6228 18.8009 
528 2 42.5 62.0169 20.195 
529 2 43.8941 60.6228 18.8009 
530 2 45.2881 62.0169 20.195 
531 2 46.6822 60.6228 18.8009 
532 2 48.0763 62.0169 20.195 
533 2 49.4703 60.6228 18.8009 
534 2 50.8644 62.0169 20.195 
535 2 52.2584 60.6228 18.8009 
536 2 53.6525 62.0169 20.195 
537 2 55.0466 60.6228 18.8009 
538 2 56.4406 62.0169 20.195 
539 2 57.8347 60.6228 18.8009 
540 2 59.2288 62.0169 20.195 
541 2 60.6228 60.6228 18.8009 
542 2 62.0169 62.0169 20.195 
543 2 63.4109 60.6228 18.8009 
544 2 64.805 62.0169 20.195 
545 2 18.8009 63.4109 18.8009 
546 2 20.195 64.805 20.195 
547 2 21.5891 63.4109 18.8009 
548 2 22.9831 64.805 20.195 
549 2 24.3772 63.4109 18.8009 
550 2 25.7712 64.805 20.195 
551 2 27.1653 63.4109 18.8009 
552 2 28.5594 64.805 20.195 
553 2 29.9534 63.4109 18.8009 
554 2 31.3475 64.805 20.195 
555 2 32.7416 63.4109 18.8009 
556 2 34.1356 64.805 20.195 
557 2 35.5297 63.4109 18.8009 
558 2 36.9237 64.805 20.195 
559 2 38.3178 63.4109 18.8009 
560 2 39.7119 64.805 20.195 
561 2 41.1059 63.4109 18.8009 
562 2 42.5 64.805 20.195 
563 2 43.8941 63.4109 18.8009 
564 2 45.2881 64.805 20.195 
565 2 46.6822 63.4109 18.8009 
566 2 48.0763 64.805 20.195 
567 2 49.4703 63.4109 18.8009 
568 2 50.8644 64.805 20.195 
569 2 52.2584 63.4109 18.8009 
570 2 53.6525 64.805 20.195 
571 2 55.0466 63.4109 18.8009 
572 2 56.4406 64.805 20.195 
573 2 57.8347 63.4109 18.8009 
574 2 59.2288 64.805 20.195 
575 2 60.6228 63.4109 18.8009 
576 2 62.0169 64.805 20.195 
577 2 63.4109 63.4109 18.8009 
578 2 64.805 64.805 20.195 
579 2 18.8009 18.8009 21.5891 
580 2 20.195 20.195 22.9831 
581 2 21.5891 18.8009 21.5891 
582 2 22.9831 20.195 22.9831 
583 2 24.3772 18.8009 21.5891 
584 2 25.7712 20.195 22.9831 
585 2 27.1653 18.8009 21.5891 
586 2 28.5594 20.195 22.9831 
587 2 29.9534 18.8009 21.5891 
588 2 31.3475 20.195 22.9831 
589 2 32.7416 18.8009 21.5891 
590 2 34.1356 20.195 22.9831 
591 2 35.5297 18.8009 21.5891 
592 2 36.9237 20.195 22.9831 
593 2 38.3178 18.8009 21.5891 
594 2 39.7119 20.195 22.9831 
595 2 41.1059 18.8009 21.5891 
596 2 42.5 20.195 22.9831 
597 2 43.8941 18.8009 21.5891 
598 2 45.2881 20.195 22.9831 
599 2 46.6822 18.8009 21.5891 
600 2 48.0763 20.195 22.9831 
601 2 49.4703 18.8009 21.5891 
602 2 50.8644 20.195 22.9831 
603 2 52.2584 18.8009 21.5891 
604 2 53.6525 20.195 22.9831 
605 2 55.0466 18.8009 21.5891 
606 2 56.4406 20.195 22.9831 
607 2 57.8347 18.8009 21.5891 
608 2 59.2288 20.195 22.9831 
609 2 60.6228 18.8009 21.5891 
610 2 62.0169 20.195 22.9831 
611 2 63.4109 18.8009 21.5891 
612 2 64.805 20.195 22.9831 
613 2 18.8009 21.5891 21.5891 
614 2 20.195 22.9831 22.9831 
615 2 21.5891 21.5891 21.5891 
616 2 22.9831 22.9831 22.9831 
617 2 24.3772 21.5891 21.5891 
618 2 25.7712 22.9831 22.9831 
619 2 27.1653 21.5891 21.5891 
620 2 28.5594 22.9831 22.9831 
621 2 29.9534 21.5891 21.5891 
622 2 31.3475 22.9831 22.9831 
623 2 32.7416 21.5891 21.5891 
624 2 34.1356 22.9831 22.9831 
625 2 35.5297 21.5891 21.5891 
626 2 36.9237 22.9831 22.9831 
627 2 38.3178 21.5891 21.5891 
628 2 39.7119 22.9831 22.9831 
629 2 41.1059 21.5891 21.5891 
630 2 42.5 22.9831 22.9831 
631 2 43.8941 21.5891 21.5891 
632 2 45.2881 22.9831 22.9831 
633 2 46.6822 21.5891 21.5891 
634 2 48.0763 22.9831 22.9831 
635 2 49.4703 21.5891 21.5891 
636 2 50.8644 22.9831 22.9831 
637 2 52.2584 21.5891 21.5891 
638 2 53.6525 22.9831 22.9831 
639 2 55.0466 21.5891 21.5891 
640 2 56.4406 22.9831 22.9831 
641 2 57.8347 21.5891 21.5891 
642 2 59.2288 22.9831 22.9831 
643 2 60.6228 21.5891 21.5891 
644 2 62.0169 22.9831 22.9831 
645 2 63.4109 21.5891 21.5891 
646 2 64.805 22.9831 22.9831 
647 2 18.8009 24.3772 21.5891 
648 2 20.195 25.7712 22.9831 
649 2 21.5891 24.3772 21.5891 
650 2 22.9831 25.7712 22.9831 
651 2 24.3772 24.3772 21.5891 
652 2 25.7712 25.7712 22.9831 
653 2 27.1653 24.3772 21.5891 
654 2 28.5594 25.7712 22.9831 
655 2 29.9534 24.3772 21.5891 
656 2 31.3475 25.7712 22.9831 
657 2 32.7416 24.3772 21.5891 
658 2 34.1356 25.7712 22.9831 
659 2 35.5297 24.3772 21.5891 
660 2 36.9237 25.7712 22.9831 
661 2 38.3178 24.3772 21.5891 
662 2 39.7119 25.7712 22.9831 
663 2 41.1059 24.3772 21.5891 
664 2 42.5 25.7712 22.9831 
665 2 43.8941 24.3772 21.5891 
666 2 45.2881 25.7712 22.9831 
667 2 46.6822 24.3772 21.5891 
668 2 48.0763 25.7712 22.9831 
669 2 49.4703 24.3772 21.5891 
670 2 50.8644 25.7712 22.9831 
671 2 52.2584 24.3772 21.5891 
672 2 53.6525 25.7712 22.9831 
673 2 55.0466 24.3772 21.5891 
674 2 56.4406 25.7712 22.9831 
675 2 57.8347 24.3772 21.5891 
676 2 59.2288 25.7712 22.9831 
677 2 60.6228 24.3772 21.5891 
678 2 62.0169 25.7712 22.9831 
679 2 63.4109 24.3772 21.5891 
680 2 64.805 25.7712 22.9831 
681 2 18.8009 27.1653 21.5891 
682 2 20.195 28.5594 22.9831 
683 2 21.5891 27.1653 21.5891 
684 2 22.9831 28.5594 22.9831 
685 2 24.3772 27.1653 21.5891 
686 2 25.7712 28.5594 22.9831 
687 2 27.1653 27.1653 21.5891 
688 2 28.5594 28.5594 22.9831 
689 2 29.9534 27.1653 21.5891 
690 2 31.3475 28.5594 22.9831 
691 2 32.7416 27.1653 21.5891 
692 2 34.1356 28.5594 22.9831 
693 2 35.5297 27.1653 21.5891 
694 2 36.9237 28.5594 22.9831 
695 2 38.3178 27.1653 21.5891 
696 2 39.7119 28.5594 22.9831 
697 2 41.1059 27.1653 21.5891 
698 2 42.5 28.5594 22.9831 
699 2 43.8941 27.1653 21.5891 
700 2 45.2881 28.5594 22.9831 
701 2 46.6822 27.1653 21.5891 
702 2 48.0763 28.5594 22.9831 
703 2 49.4703 27.1653 21.5891 
704 2 50.8644 28.5594 22.9831 
705 2 52.2584 27.1653 21.5891 
706 2 53.6525 28.5594 22.9831 
707 2 55.0466 27.1653 21.5891 
708 2 56.4406 28.5594 22.9831 
709 2 57.8347 27.1653 21.5891 
710 2 59.2288 28.5594 22.9831 
711 2 60.6228 27.1653 21.5891 
712 2 62.0169 28.5594 22.9831 
713 2 63.4109 27.1653 21.5891 
714 2 64.805 28.5594 22.9831 
715 2 18.8009 29.9534 21.5891 
716 2 20.195 31.3475 22.9831 
717 2 21.5891 29.9534 21.5891 
718 2 22.9831 31.3475 22.9831 
719 2 24.3772 29.9534 21.5891 
720 2 25.7712 31.3475 22.9831 
721 2 27.1653 29.9534 21.5891 
722 2 28.5594 31.3475 22.9831 
723 2 29.9534 29.9534 21.5891 
724 2 31.3475 31.3475 22.9831 
725 2 32.7416 29.9534 21.5891 
726 2 34.1356 31.3475 22.9831 
727 2 35.5297 29.9534 21.5891 
728 2 36.9237 31.3475 22.9831 
729 2 38.3178 29.9534 21.5891 
730 2 39.7119 31.3475 22.9831 
731 2 41.1059 29.9534 21.5891 
732 2 42.5 31.3475 22.9831 
733 2 43.8941 29.9534 21.5891 
734 2 45.2881 31.3475 22.9831 
735 2 46.6822 29.9534 21.5891 
736 2 48.0763 31.3475 22.9831 
737 2 49.4703 29.9534 21.5891 
738 2 50.8644 31.3475 22.9831 
739 2 52.2584 29.9534 21.5891 
740 2 53.6525 31.3475 22.9831 
741 2 55.0466 29.9534 21.5891 
742 2 56.4406 31.3475 22.9831 
743 2 57.8347 29.9534 21.5891 
744 2 59.2288 31.3475 22.9831 
745 2 60.6228 29.9534 21.5891 
746 2 62.0169 31.3475 22.9831 
747 2 63.4109 29.9534 21.5891 
748 2 64.805 31.3475 22.9831 
749 2 18.8009 32.7416 21.5891 
750 2 20.195 34.1356 22.9831 
751 2 21.5891 32.7416 21.5891 
752 2 22.9831 34.1356 22.9831 
753 2 24.3772 32.7416 21.5891 
754 2 25.7712 34.1356 22.9831 
755 2 27.1653 32.7416 21.5891 
756 2 28.5594 34.1356 22.9831 
757 2 29.9534 32.7416 21.5891 
758 2 31.3475 34.1356 22.9831 
759 2 32.7416 32.7416 21.5891 
760 2 34.1356 34.1356 22.9831 
761 2 35.5297 32.7416 21.5891 
762 2 36.9237 34.1356 22.9831 
763 2 38.3178 32.7416 21.5891 
764 2 39.7119 34.1356 22.9831 
765 2 41.1059 32.7416 21.5891 
766 2 42.5 34.1356 22.9831 
767 2 43.8941 32.7416 21.5891 
768 2 45.2881 34.1356 22.9831 
769 2 46.6822 32.7416 21.5891 
770 2 48.0763 34.1356 22.9831 
771 2 49.4703 32.7416 21.5891 
772 2 50.8644 34.1356 22.9831 
773 2 52.2584 32.7416 21.5891 
774 2 53.6525 34.1356 22.9831 
775 2 55.0466 32.7416 21.5891 
776 2 56.4406 34.1356 22.9831 
777 2 57.8347 32.7416 21.5891 
778 2 59.2288 34.1356 22.9831 
779 2 60.6228 32.7416 21.5891 
780 2 62.0169 34.1356 22.9831 
781 2 63.4109 32.7416 21.5891 
782 2 64.805 34.1356 22.9831 
783 2 18.8009 35.5297 21.5891 
784 2 20.195 36.9237 22.9831 
785 2 21.5891 35.5297 21.5891 
786 2 22.9831 36.9237 22.9831 
787 2 24.3772 35.5297 21.5891 
788 2 25.7712 36.9237 22.9831 
789 2 27.1653 35.5297 21.5891 
790 2 28.5594 36.9237 22.9831 
791 2 29.9534 35.5297 21.5891 
792 2 31.3475 36.9237 22.9831 
793 2 32.7416 35.5297 21.5891 
794 2 34.1356 36.9237 22.9831 
795 2 35.5297 35.5297 21.5891 
796 2 36.9237 36.9237 22.9831 
797 2 38.3178 35.5297 21.5891 
798 2 39.7119 36.9237 22.9831 
799 2 41.1059 35.5297 21.5891 
800 2 42.5 36.9237 22.9831 
801 2 43.8941 35.5297 21.5891 
802 2 45.2881 36.9237 22.9831 
803 2 46.6822 35.5297 21.5891 
804 2 48.0763 36.9237 22.9831 
805 2 49.4703 35.5297 21.5891 
806 2 50.8644 36.9237 22.9831 
807 2 52.2584 35.5297 21.5891 
808 2 53.6525 36.9237 22.9831 
809 2 55.0466 35.5297 21.5891 
810 2 56.4406 36.9237 22.9831 
811 2 57.8347 35.5297 21.5891 
812 2 59.2288 36.9237 22.9831 
813 2 60.6228 35.5297 21.5891 
814 2 62.0169 36.9237 22.9831 
815 2 63.4109 35.5297 21.5891 
816 2 64.805 36.9237 22.9831 
817 2 18.8009 38.3178 21.5891 
818 2 20.195 39.7119 22.9831 
819 2 21.5891 38.3178 21.5891 
820 2 22.9831 39.7119 22.9831 
821 2 24.3772 38.3178 21.5891 
822 2 25.7712 39.7119 22.9831 
823 2 27.1653 38.3178 21.5891 
824 2 28.5594 39.7119 22.9831 
825 2 29.9534 38.3178 21.5891 
826 2 31.3475 39.7119 22.9831 
827 2 32.7416 38.3178 21.5891 
828 2 34.1356 39.7119 22.9831 
829 2 35.5297 38.3178 21.5891 
830 2 36.9237 39.7119 22.9831 
831 2 38.3178 38.3178 21.5891 
832 2 39.7119 39.7119 22.9831 
833 2 41.1059 38.3178 21.5891 
834 2 42.5 39.7119 22.9831 
835 2 43.8941 38.3178 21.5891 
836 2 45.2881 39.7119 22.9831 
837 2 46.6822 38.3178 21.5891 
838 2 48.0763 39.7119 22.9831 
839 2 49.4703 38.3178 21.5891 
840 2 50.8644 39.7119 22.9831 
841 2 52.2584 38.3178 21.5891 
842 2 53.6525 39.7119 22.9831 
843 2 55.0466 38.3178 21.5891 
844 2 56.4406 39.7119 22.9831 
845 2 57.8347 38.3178 21.5891 
846 2 59.2288 39.7119 22.9831 
847 2 60.6228 38.3178 21.5891 
848 2 62.0169 39.7119 22.9831 
849 2 63.4109 38.3178 21.5891 
850 2 64.805 39.7119 22.9831 
851 2 18.8009 41.1059 21.5891 
852 2 20.195 42.5 22.9831 
853 2 21.5891 41.1059 21.5891 
854 2 22.9831 42.5 22.9831 
855 2 24.3772 41.1059 21.5891 
856 2 25.7712 42.5 22.9831 
857 2 27.1653 41.1059 21.5891 
858 2 28.5594 42.5 22.9831 
859 2 29.9534 41.1059 21.5891 
860 2 31.3475 42.5 22.9831 
861 2 32.7416 41.1059 21.5891 
862 2 34.1356 42.5 22.9831 
863 2 35.5297 41.1059 21.5891 
864 2 36.9237 42.5 22.9831 
865 2 38.3178 41.1059 21.5891 
866 2 39.7119 42.5 22.9831 
867 2 41.1059 41.1059 21.5891 
868 2 42.5 42.5 22.9831 
869 2 43.8941 41.1059 21.5891 
870 2 45.2881 42.5 22.9831 
871 2 46.6822 41.1059 21.5891 
872 2 48.0763 42.5 22.9831 
873 2 49.4703 41.1059 21.5891 
874 2 50.8644 42.5 22.9831 
875 2 52.2584 41.1059 21.5891 
876 2 53.6525 42.5 22.9831 
877 2 55.0466 41.1059 21.5891 
878 2 56.4406 42.5 22.9831 
879 2 57.8347 41.1059 21.5891 
880 2 59.2288 42.5 22.9831 
881 2 60.6228 41.1059 21.5891 
882 2 62.0169 42.5 22.9831 
883 2 63.4109 41.1059 21.5891 
884 2 64.805 42.5 22.9831 
885 2 18.8009 43.8941 21.5891 
886 2 20.195 45.2881 22.9831 
887 2 21.5891 43.8941 21.5891 
888 2 22.9831 45.2881 22.9831 
889 2 24.3772 43.8941 21.5891 
890 2 25.7712 45.2881 22.9831 
891 2 27.1653 43.8941 21.5891 
892 2 28.5594 45.2881 22.9831 
893 2 29.9534 43.8941 21.5891 
894 2 31.3475 45.2881 22.9831 
895 2 32.7416 43.8941 21.5891 
896 2 34.1356 45.2881 22.9831 
897 2 35.5297 43.8941 21.5891 
898 2 36.9237 45.2881 22.9831 
899 2 38.3178 43.8941 21.5891 
900 2 39.7119 45.2881 22.9831 
901 2 41.1059 43.8941 21.5891 
902 2 42.5 45.2881 22.9831 
903 2 43.8941 43.8941 21.5891 
904 2 45.2881 45.2881 22.9831 
905 2 46.6822 43.8941 21.5891 
906 2 48.0763 45.2881 22.9831 
907 2 49.4703 43.8941 21.5891 
908 2 50.8644 45.2881 22.9831 
909 2 52.2584 43.8941 21.5891 
910 2 53.6525 45.2881 22.9831 
911 2 55.0466 43.8941 21.5891 
912 2 56.4406 45.2881 22.9831 
913 2 57.8347 43.8941 21.5891 
914 2 59.2288 45.2881 22.9831 
915 2 60.6228 43.8941 21.5891 
916 2 62.0169 45.2881 22.9831 
917 2 63.4109 43.8941 21.5891 
918 2 64.805 45.2881 22.9831 
919 2 18.8009 46.6822 21.5891 
920 2 20.195 48.0763 22.9831 
921 2 21.5891 46.6822 21.5891 
922 2 22.9831 48.0763 22.9831 
923 2 24.3772 46.6822 21.5891 
924 2 25.7712 48.0763 22.9831 
925 2 27.1653 46.6822 21.5891 
926 2 28.5594 48.0763 22.9831 
927 2 29.9534 46.6822 21.5891 
928 2 31.3475 48.0763 22.9831 
929 2 32.7416 46.6822 21.5891 
930 2 34.1356 48.0763 22.9831 
931 2 35.5297 46.6822 21.5891 
932 2 36.9237 48.0763 22.9831 
933 2 38.3178 46.6822 21.5891 
934 2 39.7119 48.0763 22.9831 
935 2 41.1059 46.6822 21.5891 
936 2 42.5 48.0763 22.9831 
937 2 43.8941 46.6822 21.5891 
938 2 45.2881 48.0763 22.9831 
939 2 46.6822 46.6822 21.5891 
940 2 48.0763 48.0763 22.9831 
941 2 49.4703 46.6822 21.5891 
942 2 50.8644 48.0763 22.9831 
943 2 52.2584 46.6822 21.5891 
944 2 53.6525 48.0763 22.9831 
945 2 55.0466 46.6822 21.5891 
946 2 56.4406 48.0763 22.9831 
947 2 57.8347 46.6822 21.5891 
948 2 59.2288 48.0763 22.9831 
949 2 60.6228 46.6822 21.5891 
950 2 62.0169 48.0763 22.9831 
951 2 63.4109 46.6822 21.5891 
952 2 64.805 48.0763 22.9831 
953 2 18.8009 49.4703 21.5891 
954 2 20.195 50.8644 22.9831 
955 2 21.5891 49.4703 21.5891 
956 2 22.9831 50.8644 22.9831 
957 2 24.3772 49.4703 21.5891 
958 2 25.7712 50.8644 22.9831 
959 2 27.1653 49.4703 21.5891 
960 2 28.5594 50.8644 22.9831 
961 2 29.9534 49.4703 21.5891 
962 2 31.3475 50.8644 22.9831 
963 2 32.7416 49.4703 21.5891 
964 2 34.1356 50.8644 22.9831 
965 2 35.5297 49.4703 21.5891 
966 2 36.9237 50.8644 22.9831 
967 2 38.3178 49.4703 21.5891 
968 2 39.7119 50.8644 22.9831 
969 2 41.1059 49.4703 21.5891 
970 2 42.5 50.8644 22.9831 
971 2 43.8941 49.4703 21.5891 
972 2 45.2881 50.8644 22.9831 
973 2 46.6822 49.4703 21.5891 
974 2 48.0763 50.8644 22.9831 
975 2 49.4703 49.4703 21.5891 
976 2 50.8644 50.8644 22.9831 
977 2 52.2584 49.4703 21.5891 
978 2 53.6525 50.8644 22.9831 
979 2 55.0466 49.4703 21.5891 
980 2 56.4406 50.8644 22.9831 
981 2 57.8347 49.4703 21.5891 
982 2 59.2288 50.8644 22.9831 