ITEM: TIMESTEP
62
ITEM: NUMBER OF ATOMS
19652
ITEM: BOX BOUNDS pp pp pp
1.2720528052979912e+01 7.2279471947019772e+01
1.2720528052979912e+01 7.2279471947019772e+01
1.2720528052979912e+01 7.2279471947019772e+01
ITEM: ATOMS id type xu yu zu 
1 1 12.7205 12.7205 12.7205 
2 1 14.4723 14.4723 12.7205 
3 1 14.4723 12.7205 14.4723 
4 1 12.7205 14.4723 14.4723 
5 1 16.224 12.7205 12.7205 
6 1 17.9757 14.4723 12.7205 
7 1 17.9757 12.7205 14.4723 
8 1 16.224 14.4723 14.4723 
9 1 19.7275 12.7205 12.7205 
10 1 21.4792 14.4723 12.7205 
11 1 21.4792 12.7205 14.4723 
12 1 19.7275 14.4723 14.4723 
13 1 23.2309 12.7205 12.7205 
14 1 24.9827 14.4723 12.7205 
15 1 24.9827 12.7205 14.4723 
16 1 23.2309 14.4723 14.4723 
17 1 26.7344 12.7205 12.7205 
18 1 28.4861 14.4723 12.7205 
19 1 28.4861 12.7205 14.4723 
20 1 26.7344 14.4723 14.4723 
21 1 30.2379 12.7205 12.7205 
22 1 31.9896 14.4723 12.7205 
23 1 31.9896 12.7205 14.4723 
24 1 30.2379 14.4723 14.4723 
25 1 33.7413 12.7205 12.7205 
26 1 35.4931 14.4723 12.7205 
27 1 35.4931 12.7205 14.4723 
28 1 33.7413 14.4723 14.4723 
29 1 37.2448 12.7205 12.7205 
30 1 38.9965 14.4723 12.7205 
31 1 38.9965 12.7205 14.4723 
32 1 37.2448 14.4723 14.4723 
33 1 40.7483 12.7205 12.7205 
34 1 42.5 14.4723 12.7205 
35 1 42.5 12.7205 14.4723 
36 1 40.7483 14.4723 14.4723 
37 1 44.2517 12.7205 12.7205 
38 1 46.0035 14.4723 12.7205 
39 1 46.0035 12.7205 14.4723 
40 1 44.2517 14.4723 14.4723 
41 1 47.7552 12.7205 12.7205 
42 1 49.5069 14.4723 12.7205 
43 1 49.5069 12.7205 14.4723 
44 1 47.7552 14.4723 14.4723 
45 1 51.2587 12.7205 12.7205 
46 1 53.0104 14.4723 12.7205 
47 1 53.0104 12.7205 14.4723 
48 1 51.2587 14.4723 14.4723 
49 1 54.7621 12.7205 12.7205 
50 1 56.5139 14.4723 12.7205 
51 1 56.5139 12.7205 14.4723 
52 1 54.7621 14.4723 14.4723 
53 1 58.2656 12.7205 12.7205 
54 1 60.0173 14.4723 12.7205 
55 1 60.0173 12.7205 14.4723 
56 1 58.2656 14.4723 14.4723 
57 1 61.7691 12.7205 12.7205 
58 1 63.5208 14.4723 12.7205 
59 1 63.5208 12.7205 14.4723 
60 1 61.7691 14.4723 14.4723 
61 1 65.2725 12.7205 12.7205 
62 1 67.0243 14.4723 12.7205 
63 1 67.0243 12.7205 14.4723 
64 1 65.2725 14.4723 14.4723 
65 1 68.776 12.7205 12.7205 
66 1 70.5277 14.4723 12.7205 
67 1 70.5277 12.7205 14.4723 
68 1 68.776 14.4723 14.4723 
69 1 12.7205 16.224 12.7205 
70 1 14.4723 17.9757 12.7205 
71 1 14.4723 16.224 14.4723 
72 1 12.7205 17.9757 14.4723 
73 1 16.224 16.224 12.7205 
74 1 17.9757 17.9757 12.7205 
75 1 17.9757 16.224 14.4723 
76 1 16.224 17.9757 14.4723 
77 1 19.7275 16.224 12.7205 
78 1 21.4792 17.9757 12.7205 
79 1 21.4792 16.224 14.4723 
80 1 19.7275 17.9757 14.4723 
81 1 23.2309 16.224 12.7205 
82 1 24.9827 17.9757 12.7205 
83 1 24.9827 16.224 14.4723 
84 1 23.2309 17.9757 14.4723 
85 1 26.7344 16.224 12.7205 
86 1 28.4861 17.9757 12.7205 
87 1 28.4861 16.224 14.4723 
88 1 26.7344 17.9757 14.4723 
89 1 30.2379 16.224 12.7205 
90 1 31.9896 17.9757 12.7205 
91 1 31.9896 16.224 14.4723 
92 1 30.2379 17.9757 14.4723 
93 1 33.7413 16.224 12.7205 
94 1 35.4931 17.9757 12.7205 
95 1 35.4931 16.224 14.4723 
96 1 33.7413 17.9757 14.4723 
97 1 37.2448 16.224 12.7205 
98 1 38.9965 17.9757 12.7205 
99 1 38.9965 16.224 14.4723 
100 1 37.2448 17.9757 14.4723 
101 1 40.7483 16.224 12.7205 
102 1 42.5 17.9757 12.7205 
103 1 42.5 16.224 14.4723 
104 1 40.7483 17.9757 14.4723 
105 1 44.2517 16.224 12.7205 
106 1 46.0035 17.9757 12.7205 
107 1 46.0035 16.224 14.4723 
108 1 44.2517 17.9757 14.4723 
109 1 47.7552 16.224 12.7205 
110 1 49.5069 17.9757 12.7205 
111 1 49.5069 16.224 14.4723 
112 1 47.7552 17.9757 14.4723 
113 1 51.2587 16.224 12.7205 
114 1 53.0104 17.9757 12.7205 
115 1 53.0104 16.224 14.4723 
116 1 51.2587 17.9757 14.4723 
117 1 54.7621 16.224 12.7205 
118 1 56.5139 17.9757 12.7205 
119 1 56.5139 16.224 14.4723 
120 1 54.7621 17.9757 14.4723 
121 1 58.2656 16.224 12.7205 
122 1 60.0173 17.9757 12.7205 
123 1 60.0173 16.224 14.4723 
124 1 58.2656 17.9757 14.4723 
125 1 61.7691 16.224 12.7205 
126 1 63.5208 17.9757 12.7205 
127 1 63.5208 16.224 14.4723 
128 1 61.7691 17.9757 14.4723 
129 1 65.2725 16.224 12.7205 
130 1 67.0243 17.9757 12.7205 
131 1 67.0243 16.224 14.4723 
132 1 65.2725 17.9757 14.4723 
133 1 68.776 16.224 12.7205 
134 1 70.5277 17.9757 12.7205 
135 1 70.5277 16.224 14.4723 
136 1 68.776 17.9757 14.4723 
137 1 12.7205 19.7275 12.7205 
138 1 14.4723 21.4792 12.7205 
139 1 14.4723 19.7275 14.4723 
140 1 12.7205 21.4792 14.4723 
141 1 16.224 19.7275 12.7205 
142 1 17.9757 21.4792 12.7205 
143 1 17.9757 19.7275 14.4723 
144 1 16.224 21.4792 14.4723 
145 1 19.7275 19.7275 12.7205 
146 1 21.4792 21.4792 12.7205 
147 1 21.4792 19.7275 14.4723 
148 1 19.7275 21.4792 14.4723 
149 1 23.2309 19.7275 12.7205 
150 1 24.9827 21.4792 12.7205 
151 1 24.9827 19.7275 14.4723 
152 1 23.2309 21.4792 14.4723 
153 1 26.7344 19.7275 12.7205 
154 1 28.4861 21.4792 12.7205 
155 1 28.4861 19.7275 14.4723 
156 1 26.7344 21.4792 14.4723 
157 1 30.2379 19.7275 12.7205 
158 1 31.9896 21.4792 12.7205 
159 1 31.9896 19.7275 14.4723 
160 1 30.2379 21.4792 14.4723 
161 1 33.7413 19.7275 12.7205 
162 1 35.4931 21.4792 12.7205 
163 1 35.4931 19.7275 14.4723 
164 1 33.7413 21.4792 14.4723 
165 1 37.2448 19.7275 12.7205 
166 1 38.9965 21.4792 12.7205 
167 1 38.9965 19.7275 14.4723 
168 1 37.2448 21.4792 14.4723 
169 1 40.7483 19.7275 12.7205 
170 1 42.5 21.4792 12.7205 
171 1 42.5 19.7275 14.4723 
172 1 40.7483 21.4792 14.4723 
173 1 44.2517 19.7275 12.7205 
174 1 46.0035 21.4792 12.7205 
175 1 46.0035 19.7275 14.4723 
176 1 44.2517 21.4792 14.4723 
177 1 47.7552 19.7275 12.7205 
178 1 49.5069 21.4792 12.7205 
179 1 49.5069 19.7275 14.4723 
180 1 47.7552 21.4792 14.4723 
181 1 51.2587 19.7275 12.7205 
182 1 53.0104 21.4792 12.7205 
183 1 53.0104 19.7275 14.4723 
184 1 51.2587 21.4792 14.4723 
185 1 54.7621 19.7275 12.7205 
186 1 56.5139 21.4792 12.7205 
187 1 56.5139 19.7275 14.4723 
188 1 54.7621 21.4792 14.4723 
189 1 58.2656 19.7275 12.7205 
190 1 60.0173 21.4792 12.7205 
191 1 60.0173 19.7275 14.4723 
192 1 58.2656 21.4792 14.4723 
193 1 61.7691 19.7275 12.7205 
194 1 63.5208 21.4792 12.7205 
195 1 63.5208 19.7275 14.4723 
196 1 61.7691 21.4792 14.4723 
197 1 65.2725 19.7275 12.7205 
198 1 67.0243 21.4792 12.7205 
199 1 67.0243 19.7275 14.4723 
200 1 65.2725 21.4792 14.4723 
201 1 68.776 19.7275 12.7205 
202 1 70.5277 21.4792 12.7205 
203 1 70.5277 19.7275 14.4723 
204 1 68.776 21.4792 14.4723 
205 1 12.7205 23.2309 12.7205 
206 1 14.4723 24.9827 12.7205 
207 1 14.4723 23.2309 14.4723 
208 1 12.7205 24.9827 14.4723 
209 1 16.224 23.2309 12.7205 
210 1 17.9757 24.9827 12.7205 
211 1 17.9757 23.2309 14.4723 
212 1 16.224 24.9827 14.4723 
213 1 19.7275 23.2309 12.7205 
214 1 21.4792 24.9827 12.7205 
215 1 21.4792 23.2309 14.4723 
216 1 19.7275 24.9827 14.4723 
217 1 23.2309 23.2309 12.7205 
218 1 24.9827 24.9827 12.7205 
219 1 24.9827 23.2309 14.4723 
220 1 23.2309 24.9827 14.4723 
221 1 26.7344 23.2309 12.7205 
222 1 28.4861 24.9827 12.7205 
223 1 28.4861 23.2309 14.4723 
224 1 26.7344 24.9827 14.4723 
225 1 30.2379 23.2309 12.7205 
226 1 31.9896 24.9827 12.7205 
227 1 31.9896 23.2309 14.4723 
228 1 30.2379 24.9827 14.4723 
229 1 33.7413 23.2309 12.7205 
230 1 35.4931 24.9827 12.7205 
231 1 35.4931 23.2309 14.4723 
232 1 33.7413 24.9827 14.4723 
233 1 37.2448 23.2309 12.7205 
234 1 38.9965 24.9827 12.7205 
235 1 38.9965 23.2309 14.4723 
236 1 37.2448 24.9827 14.4723 
237 1 40.7483 23.2309 12.7205 
238 1 42.5 24.9827 12.7205 
239 1 42.5 23.2309 14.4723 
240 1 40.7483 24.9827 14.4723 
241 1 44.2517 23.2309 12.7205 
242 1 46.0035 24.9827 12.7205 
243 1 46.0035 23.2309 14.4723 
244 1 44.2517 24.9827 14.4723 
245 1 47.7552 23.2309 12.7205 
246 1 49.5069 24.9827 12.7205 
247 1 49.5069 23.2309 14.4723 
248 1 47.7552 24.9827 14.4723 
249 1 51.2587 23.2309 12.7205 
250 1 53.0104 24.9827 12.7205 
251 1 53.0104 23.2309 14.4723 
252 1 51.2587 24.9827 14.4723 
253 1 54.7621 23.2309 12.7205 
254 1 56.5139 24.9827 12.7205 
255 1 56.5139 23.2309 14.4723 
256 1 54.7621 24.9827 14.4723 
257 1 58.2656 23.2309 12.7205 
258 1 60.0173 24.9827 12.7205 
259 1 60.0173 23.2309 14.4723 
260 1 58.2656 24.9827 14.4723 
261 1 61.7691 23.2309 12.7205 
262 1 63.5208 24.9827 12.7205 
263 1 63.5208 23.2309 14.4723 
264 1 61.7691 24.9827 14.4723 
265 1 65.2725 23.2309 12.7205 
266 1 67.0243 24.9827 12.7205 
267 1 67.0243 23.2309 14.4723 
268 1 65.2725 24.9827 14.4723 
269 1 68.776 23.2309 12.7205 
270 1 70.5277 24.9827 12.7205 
271 1 70.5277 23.2309 14.4723 
272 1 68.776 24.9827 14.4723 
273 1 12.7205 26.7344 12.7205 
274 1 14.4723 28.4861 12.7205 
275 1 14.4723 26.7344 14.4723 
276 1 12.7205 28.4861 14.4723 
277 1 16.224 26.7344 12.7205 
278 1 17.9757 28.4861 12.7205 
279 1 17.9757 26.7344 14.4723 
280 1 16.224 28.4861 14.4723 
281 1 19.7275 26.7344 12.7205 
282 1 21.4792 28.4861 12.7205 
283 1 21.4792 26.7344 14.4723 
284 1 19.7275 28.4861 14.4723 
285 1 23.2309 26.7344 12.7205 
286 1 24.9827 28.4861 12.7205 
287 1 24.9827 26.7344 14.4723 
288 1 23.2309 28.4861 14.4723 
289 1 26.7344 26.7344 12.7205 
290 1 28.4861 28.4861 12.7205 
291 1 28.4861 26.7344 14.4723 
292 1 26.7344 28.4861 14.4723 
293 1 30.2379 26.7344 12.7205 
294 1 31.9896 28.4861 12.7205 
295 1 31.9896 26.7344 14.4723 
296 1 30.2379 28.4861 14.4723 
297 1 33.7413 26.7344 12.7205 
298 1 35.4931 28.4861 12.7205 
299 1 35.4931 26.7344 14.4723 
300 1 33.7413 28.4861 14.4723 
301 1 37.2448 26.7344 12.7205 
302 1 38.9965 28.4861 12.7205 
303 1 38.9965 26.7344 14.4723 
304 1 37.2448 28.4861 14.4723 
305 1 40.7483 26.7344 12.7205 
306 1 42.5 28.4861 12.7205 
307 1 42.5 26.7344 14.4723 
308 1 40.7483 28.4861 14.4723 
309 1 44.2517 26.7344 12.7205 
310 1 46.0035 28.4861 12.7205 
311 1 46.0035 26.7344 14.4723 
312 1 44.2517 28.4861 14.4723 
313 1 47.7552 26.7344 12.7205 
314 1 49.5069 28.4861 12.7205 
315 1 49.5069 26.7344 14.4723 
316 1 47.7552 28.4861 14.4723 
317 1 51.2587 26.7344 12.7205 
318 1 53.0104 28.4861 12.7205 
319 1 53.0104 26.7344 14.4723 
320 1 51.2587 28.4861 14.4723 
321 1 54.7621 26.7344 12.7205 
322 1 56.5139 28.4861 12.7205 
323 1 56.5139 26.7344 14.4723 
324 1 54.7621 28.4861 14.4723 
325 1 58.2656 26.7344 12.7205 
326 1 60.0173 28.4861 12.7205 
327 1 60.0173 26.7344 14.4723 
328 1 58.2656 28.4861 14.4723 
329 1 61.7691 26.7344 12.7205 
330 1 63.5208 28.4861 12.7205 
331 1 63.5208 26.7344 14.4723 
332 1 61.7691 28.4861 14.4723 
333 1 65.2725 26.7344 12.7205 
334 1 67.0243 28.4861 12.7205 
335 1 67.0243 26.7344 14.4723 
336 1 65.2725 28.4861 14.4723 
337 1 68.776 26.7344 12.7205 
338 1 70.5277 28.4861 12.7205 
339 1 70.5277 26.7344 14.4723 
340 1 68.776 28.4861 14.4723 
341 1 12.7205 30.2379 12.7205 
342 1 14.4723 31.9896 12.7205 
343 1 14.4723 30.2379 14.4723 
344 1 12.7205 31.9896 14.4723 
345 1 16.224 30.2379 12.7205 
346 1 17.9757 31.9896 12.7205 
347 1 17.9757 30.2379 14.4723 
348 1 16.224 31.9896 14.4723 
349 1 19.7275 30.2379 12.7205 
350 1 21.4792 31.9896 12.7205 
351 1 21.4792 30.2379 14.4723 
352 1 19.7275 31.9896 14.4723 
353 1 23.2309 30.2379 12.7205 
354 1 24.9827 31.9896 12.7205 
355 1 24.9827 30.2379 14.4723 
356 1 23.2309 31.9896 14.4723 
357 1 26.7344 30.2379 12.7205 
358 1 28.4861 31.9896 12.7205 
359 1 28.4861 30.2379 14.4723 
360 1 26.7344 31.9896 14.4723 
361 1 30.2379 30.2379 12.7205 
362 1 31.9896 31.9896 12.7205 
363 1 31.9896 30.2379 14.4723 
364 1 30.2379 31.9896 14.4723 
365 1 33.7413 30.2379 12.7205 
366 1 35.4931 31.9896 12.7205 
367 1 35.4931 30.2379 14.4723 
368 1 33.7413 31.9896 14.4723 
369 1 37.2448 30.2379 12.7205 
370 1 38.9965 31.9896 12.7205 
371 1 38.9965 30.2379 14.4723 
372 1 37.2448 31.9896 14.4723 
373 1 40.7483 30.2379 12.7205 
374 1 42.5 31.9896 12.7205 
375 1 42.5 30.2379 14.4723 
376 1 40.7483 31.9896 14.4723 
377 1 44.2517 30.2379 12.7205 
378 1 46.0035 31.9896 12.7205 
379 1 46.0035 30.2379 14.4723 
380 1 44.2517 31.9896 14.4723 
381 1 47.7552 30.2379 12.7205 
382 1 49.5069 31.9896 12.7205 
383 1 49.5069 30.2379 14.4723 
384 1 47.7552 31.9896 14.4723 
385 1 51.2587 30.2379 12.7205 
386 1 53.0104 31.9896 12.7205 
387 1 53.0104 30.2379 14.4723 
388 1 51.2587 31.9896 14.4723 
389 1 54.7621 30.2379 12.7205 
390 1 56.5139 31.9896 12.7205 
391 1 56.5139 30.2379 14.4723 
392 1 54.7621 31.9896 14.4723 
393 1 58.2656 30.2379 12.7205 
394 1 60.0173 31.9896 12.7205 
395 1 60.0173 30.2379 14.4723 
396 1 58.2656 31.9896 14.4723 
397 1 61.7691 30.2379 12.7205 
398 1 63.5208 31.9896 12.7205 
399 1 63.5208 30.2379 14.4723 
400 1 61.7691 31.9896 14.4723 
401 1 65.2725 30.2379 12.7205 
402 1 67.0243 31.9896 12.7205 
403 1 67.0243 30.2379 14.4723 
404 1 65.2725 31.9896 14.4723 
405 1 68.776 30.2379 12.7205 
406 1 70.5277 31.9896 12.7205 
407 1 70.5277 30.2379 14.4723 
408 1 68.776 31.9896 14.4723 
409 1 12.7205 33.7413 12.7205 
410 1 14.4723 35.4931 12.7205 
411 1 14.4723 33.7413 14.4723 
412 1 12.7205 35.4931 14.4723 
413 1 16.224 33.7413 12.7205 
414 1 17.9757 35.4931 12.7205 
415 1 17.9757 33.7413 14.4723 
416 1 16.224 35.4931 14.4723 
417 1 19.7275 33.7413 12.7205 
418 1 21.4792 35.4931 12.7205 
419 1 21.4792 33.7413 14.4723 
420 1 19.7275 35.4931 14.4723 
421 1 23.2309 33.7413 12.7205 
422 1 24.9827 35.4931 12.7205 
423 1 24.9827 33.7413 14.4723 
424 1 23.2309 35.4931 14.4723 
425 1 26.7344 33.7413 12.7205 
426 1 28.4861 35.4931 12.7205 
427 1 28.4861 33.7413 14.4723 
428 1 26.7344 35.4931 14.4723 
429 1 30.2379 33.7413 12.7205 
430 1 31.9896 35.4931 12.7205 
431 1 31.9896 33.7413 14.4723 
432 1 30.2379 35.4931 14.4723 
433 1 33.7413 33.7413 12.7205 
434 1 35.4931 35.4931 12.7205 
435 1 35.4931 33.7413 14.4723 
436 1 33.7413 35.4931 14.4723 
437 1 37.2448 33.7413 12.7205 
438 1 38.9965 35.4931 12.7205 
439 1 38.9965 33.7413 14.4723 
440 1 37.2448 35.4931 14.4723 
441 1 40.7483 33.7413 12.7205 
442 1 42.5 35.4931 12.7205 
443 1 42.5 33.7413 14.4723 
444 1 40.7483 35.4931 14.4723 
445 1 44.2517 33.7413 12.7205 
446 1 46.0035 35.4931 12.7205 
447 1 46.0035 33.7413 14.4723 
448 1 44.2517 35.4931 14.4723 
449 1 47.7552 33.7413 12.7205 
450 1 49.5069 35.4931 12.7205 
451 1 49.5069 33.7413 14.4723 
452 1 47.7552 35.4931 14.4723 
453 1 51.2587 33.7413 12.7205 
454 1 53.0104 35.4931 12.7205 
455 1 53.0104 33.7413 14.4723 
456 1 51.2587 35.4931 14.4723 
457 1 54.7621 33.7413 12.7205 
458 1 56.5139 35.4931 12.7205 
459 1 56.5139 33.7413 14.4723 
460 1 54.7621 35.4931 14.4723 
461 1 58.2656 33.7413 12.7205 
462 1 60.0173 35.4931 12.7205 
463 1 60.0173 33.7413 14.4723 
464 1 58.2656 35.4931 14.4723 
465 1 61.7691 33.7413 12.7205 
466 1 63.5208 35.4931 12.7205 
467 1 63.5208 33.7413 14.4723 
468 1 61.7691 35.4931 14.4723 
469 1 65.2725 33.7413 12.7205 
470 1 67.0243 35.4931 12.7205 
471 1 67.0243 33.7413 14.4723 
472 1 65.2725 35.4931 14.4723 
473 1 68.776 33.7413 12.7205 
474 1 70.5277 35.4931 12.7205 
475 1 70.5277 33.7413 14.4723 
476 1 68.776 35.4931 14.4723 
477 1 12.7205 37.2448 12.7205 
478 1 14.4723 38.9965 12.7205 
479 1 14.4723 37.2448 14.4723 
480 1 12.7205 38.9965 14.4723 
481 1 16.224 37.2448 12.7205 
482 1 17.9757 38.9965 12.7205 
483 1 17.9757 37.2448 14.4723 
484 1 16.224 38.9965 14.4723 
485 1 19.7275 37.2448 12.7205 
486 1 21.4792 38.9965 12.7205 
487 1 21.4792 37.2448 14.4723 
488 1 19.7275 38.9965 14.4723 
489 1 23.2309 37.2448 12.7205 
490 1 24.9827 38.9965 12.7205 
491 1 24.9827 37.2448 14.4723 
492 1 23.2309 38.9965 14.4723 
493 1 26.7344 37.2448 12.7205 
494 1 28.4861 38.9965 12.7205 
495 1 28.4861 37.2448 14.4723 
496 1 26.7344 38.9965 14.4723 
497 1 30.2379 37.2448 12.7205 
498 1 31.9896 38.9965 12.7205 
499 1 31.9896 37.2448 14.4723 
500 1 30.2379 38.9965 14.4723 
501 1 33.7413 37.2448 12.7205 
502 1 35.4931 38.9965 12.7205 
503 1 35.4931 37.2448 14.4723 
504 1 33.7413 38.9965 14.4723 
505 1 37.2448 37.2448 12.7205 
506 1 38.9965 38.9965 12.7205 
507 1 38.9965 37.2448 14.4723 
508 1 37.2448 38.9965 14.4723 
509 1 40.7483 37.2448 12.7205 
510 1 42.5 38.9965 12.7205 
511 1 42.5 37.2448 14.4723 
512 1 40.7483 38.9965 14.4723 
513 1 44.2517 37.2448 12.7205 
514 1 46.0035 38.9965 12.7205 
515 1 46.0035 37.2448 14.4723 
516 1 44.2517 38.9965 14.4723 
517 1 47.7552 37.2448 12.7205 
518 1 49.5069 38.9965 12.7205 
519 1 49.5069 37.2448 14.4723 
520 1 47.7552 38.9965 14.4723 
521 1 51.2587 37.2448 12.7205 
522 1 53.0104 38.9965 12.7205 
523 1 53.0104 37.2448 14.4723 
524 1 51.2587 38.9965 14.4723 
525 1 54.7621 37.2448 12.7205 
526 1 56.5139 38.9965 12.7205 
527 1 56.5139 37.2448 14.4723 
528 1 54.7621 38.9965 14.4723 
529 1 58.2656 37.2448 12.7205 
530 1 60.0173 38.9965 12.7205 
531 1 60.0173 37.2448 14.4723 
532 1 58.2656 38.9965 14.4723 
533 1 61.7691 37.2448 12.7205 
534 1 63.5208 38.9965 12.7205 
535 1 63.5208 37.2448 14.4723 
536 1 61.7691 38.9965 14.4723 
537 1 65.2725 37.2448 12.7205 
538 1 67.0243 38.9965 12.7205 
539 1 67.0243 37.2448 14.4723 
540 1 65.2725 38.9965 14.4723 
541 1 68.776 37.2448 12.7205 
542 1 70.5277 38.9965 12.7205 
543 1 70.5277 37.2448 14.4723 
544 1 68.776 38.9965 14.4723 
545 1 12.7205 40.7483 12.7205 
546 1 14.4723 42.5 12.7205 
547 1 14.4723 40.7483 14.4723 
548 1 12.7205 42.5 14.4723 
549 1 16.224 40.7483 12.7205 
550 1 17.9757 42.5 12.7205 
551 1 17.9757 40.7483 14.4723 
552 1 16.224 42.5 14.4723 
553 1 19.7275 40.7483 12.7205 
554 1 21.4792 42.5 12.7205 
555 1 21.4792 40.7483 14.4723 
556 1 19.7275 42.5 14.4723 
557 1 23.2309 40.7483 12.7205 
558 1 24.9827 42.5 12.7205 
559 1 24.9827 40.7483 14.4723 
560 1 23.2309 42.5 14.4723 
561 1 26.7344 40.7483 12.7205 
562 1 28.4861 42.5 12.7205 
563 1 28.4861 40.7483 14.4723 
564 1 26.7344 42.5 14.4723 
565 1 30.2379 40.7483 12.7205 
566 1 31.9896 42.5 12.7205 
567 1 31.9896 40.7483 14.4723 
568 1 30.2379 42.5 14.4723 
569 1 33.7413 40.7483 12.7205 
570 1 35.4931 42.5 12.7205 
571 1 35.4931 40.7483 14.4723 
572 1 33.7413 42.5 14.4723 
573 1 37.2448 40.7483 12.7205 
574 1 38.9965 42.5 12.7205 
575 1 38.9965 40.7483 14.4723 
576 1 37.2448 42.5 14.4723 
577 1 40.7483 40.7483 12.7205 
578 1 42.5 42.5 12.7205 
579 1 42.5 40.7483 14.4723 
580 1 40.7483 42.5 14.4723 
581 1 44.2517 40.7483 12.7205 
582 1 46.0035 42.5 12.7205 
583 1 46.0035 40.7483 14.4723 
584 1 44.2517 42.5 14.4723 
585 1 47.7552 40.7483 12.7205 
586 1 49.5069 42.5 12.7205 
587 1 49.5069 40.7483 14.4723 
588 1 47.7552 42.5 14.4723 
589 1 51.2587 40.7483 12.7205 
590 1 53.0104 42.5 12.7205 
591 1 53.0104 40.7483 14.4723 
592 1 51.2587 42.5 14.4723 
593 1 54.7621 40.7483 12.7205 
594 1 56.5139 42.5 12.7205 
595 1 56.5139 40.7483 14.4723 
596 1 54.7621 42.5 14.4723 
597 1 58.2656 40.7483 12.7205 
598 1 60.0173 42.5 12.7205 
599 1 60.0173 40.7483 14.4723 
600 1 58.2656 42.5 14.4723 
601 1 61.7691 40.7483 12.7205 
602 1 63.5208 42.5 12.7205 
603 1 63.5208 40.7483 14.4723 
604 1 61.7691 42.5 14.4723 
605 1 65.2725 40.7483 12.7205 
606 1 67.0243 42.5 12.7205 
607 1 67.0243 40.7483 14.4723 
608 1 65.2725 42.5 14.4723 
609 1 68.776 40.7483 12.7205 
610 1 70.5277 42.5 12.7205 
611 1 70.5277 40.7483 14.4723 
612 1 68.776 42.5 14.4723 
613 1 12.7205 44.2517 12.7205 
614 1 14.4723 46.0035 12.7205 
615 1 14.4723 44.2517 14.4723 
616 1 12.7205 46.0035 14.4723 
617 1 16.224 44.2517 12.7205 
618 1 17.9757 46.0035 12.7205 
619 1 17.9757 44.2517 14.4723 
620 1 16.224 46.0035 14.4723 
621 1 19.7275 44.2517 12.7205 
622 1 21.4792 46.0035 12.7205 
623 1 21.4792 44.2517 14.4723 
624 1 19.7275 46.0035 14.4723 
625 1 23.2309 44.2517 12.7205 
626 1 24.9827 46.0035 12.7205 
627 1 24.9827 44.2517 14.4723 
628 1 23.2309 46.0035 14.4723 
629 1 26.7344 44.2517 12.7205 
630 1 28.4861 46.0035 12.7205 
631 1 28.4861 44.2517 14.4723 
632 1 26.7344 46.0035 14.4723 
633 1 30.2379 44.2517 12.7205 
634 1 31.9896 46.0035 12.7205 
635 1 31.9896 44.2517 14.4723 
636 1 30.2379 46.0035 14.4723 
637 1 33.7413 44.2517 12.7205 
638 1 35.4931 46.0035 12.7205 
639 1 35.4931 44.2517 14.4723 
640 1 33.7413 46.0035 14.4723 
641 1 37.2448 44.2517 12.7205 
642 1 38.9965 46.0035 12.7205 
643 1 38.9965 44.2517 14.4723 
644 1 37.2448 46.0035 14.4723 
645 1 40.7483 44.2517 12.7205 
646 1 42.5 46.0035 12.7205 
647 1 42.5 44.2517 14.4723 
648 1 40.7483 46.0035 14.4723 
649 1 44.2517 44.2517 12.7205 
650 1 46.0035 46.0035 12.7205 
651 1 46.0035 44.2517 14.4723 
652 1 44.2517 46.0035 14.4723 
653 1 47.7552 44.2517 12.7205 
654 1 49.5069 46.0035 12.7205 
655 1 49.5069 44.2517 14.4723 
656 1 47.7552 46.0035 14.4723 
657 1 51.2587 44.2517 12.7205 
658 1 53.0104 46.0035 12.7205 
659 1 53.0104 44.2517 14.4723 
660 1 51.2587 46.0035 14.4723 
661 1 54.7621 44.2517 12.7205 
662 1 56.5139 46.0035 12.7205 
663 1 56.5139 44.2517 14.4723 
664 1 54.7621 46.0035 14.4723 
665 1 58.2656 44.2517 12.7205 
666 1 60.0173 46.0035 12.7205 
667 1 60.0173 44.2517 14.4723 
668 1 58.2656 46.0035 14.4723 
669 1 61.7691 44.2517 12.7205 
670 1 63.5208 46.0035 12.7205 
671 1 63.5208 44.2517 14.4723 
672 1 61.7691 46.0035 14.4723 
673 1 65.2725 44.2517 12.7205 
674 1 67.0243 46.0035 12.7205 
675 1 67.0243 44.2517 14.4723 
676 1 65.2725 46.0035 14.4723 
677 1 68.776 44.2517 12.7205 
678 1 70.5277 46.0035 12.7205 
679 1 70.5277 44.2517 14.4723 
680 1 68.776 46.0035 14.4723 
681 1 12.7205 47.7552 12.7205 
682 1 14.4723 49.5069 12.7205 
683 1 14.4723 47.7552 14.4723 
684 1 12.7205 49.5069 14.4723 
685 1 16.224 47.7552 12.7205 
686 1 17.9757 49.5069 12.7205 
687 1 17.9757 47.7552 14.4723 
688 1 16.224 49.5069 14.4723 
689 1 19.7275 47.7552 12.7205 
690 1 21.4792 49.5069 12.7205 
691 1 21.4792 47.7552 14.4723 
692 1 19.7275 49.5069 14.4723 
693 1 23.2309 47.7552 12.7205 
694 1 24.9827 49.5069 12.7205 
695 1 24.9827 47.7552 14.4723 
696 1 23.2309 49.5069 14.4723 
697 1 26.7344 47.7552 12.7205 
698 1 28.4861 49.5069 12.7205 
699 1 28.4861 47.7552 14.4723 
700 1 26.7344 49.5069 14.4723 
701 1 30.2379 47.7552 12.7205 
702 1 31.9896 49.5069 12.7205 
703 1 31.9896 47.7552 14.4723 
704 1 30.2379 49.5069 14.4723 
705 1 33.7413 47.7552 12.7205 
706 1 35.4931 49.5069 12.7205 
707 1 35.4931 47.7552 14.4723 
708 1 33.7413 49.5069 14.4723 
709 1 37.2448 47.7552 12.7205 
710 1 38.9965 49.5069 12.7205 
711 1 38.9965 47.7552 14.4723 
712 1 37.2448 49.5069 14.4723 
713 1 40.7483 47.7552 12.7205 
714 1 42.5 49.5069 12.7205 
715 1 42.5 47.7552 14.4723 
716 1 40.7483 49.5069 14.4723 
717 1 44.2517 47.7552 12.7205 
718 1 46.0035 49.5069 12.7205 
719 1 46.0035 47.7552 14.4723 
720 1 44.2517 49.5069 14.4723 
721 1 47.7552 47.7552 12.7205 
722 1 49.5069 49.5069 12.7205 
723 1 49.5069 47.7552 14.4723 
724 1 47.7552 49.5069 14.4723 
725 1 51.2587 47.7552 12.7205 
726 1 53.0104 49.5069 12.7205 
727 1 53.0104 47.7552 14.4723 
728 1 51.2587 49.5069 14.4723 
729 1 54.7621 47.7552 12.7205 
730 1 56.5139 49.5069 12.7205 
731 1 56.5139 47.7552 14.4723 
732 1 54.7621 49.5069 14.4723 
733 1 58.2656 47.7552 12.7205 
734 1 60.0173 49.5069 12.7205 
735 1 60.0173 47.7552 14.4723 
736 1 58.2656 49.5069 14.4723 
737 1 61.7691 47.7552 12.7205 
738 1 63.5208 49.5069 12.7205 
739 1 63.5208 47.7552 14.4723 
740 1 61.7691 49.5069 14.4723 
741 1 65.2725 47.7552 12.7205 
742 1 67.0243 49.5069 12.7205 
743 1 67.0243 47.7552 14.4723 
744 1 65.2725 49.5069 14.4723 
745 1 68.776 47.7552 12.7205 
746 1 70.5277 49.5069 12.7205 
747 1 70.5277 47.7552 14.4723 
748 1 68.776 49.5069 14.4723 
749 1 12.7205 51.2587 12.7205 
750 1 14.4723 53.0104 12.7205 
751 1 14.4723 51.2587 14.4723 
752 1 12.7205 53.0104 14.4723 
753 1 16.224 51.2587 12.7205 
754 1 17.9757 53.0104 12.7205 
755 1 17.9757 51.2587 14.4723 
756 1 16.224 53.0104 14.4723 
757 1 19.7275 51.2587 12.7205 
758 1 21.4792 53.0104 12.7205 
759 1 21.4792 51.2587 14.4723 
760 1 19.7275 53.0104 14.4723 
761 1 23.2309 51.2587 12.7205 
762 1 24.9827 53.0104 12.7205 
763 1 24.9827 51.2587 14.4723 
764 1 23.2309 53.0104 14.4723 
765 1 26.7344 51.2587 12.7205 
766 1 28.4861 53.0104 12.7205 
767 1 28.4861 51.2587 14.4723 
768 1 26.7344 53.0104 14.4723 
769 1 30.2379 51.2587 12.7205 
770 1 31.9896 53.0104 12.7205 
771 1 31.9896 51.2587 14.4723 
772 1 30.2379 53.0104 14.4723 
773 1 33.7413 51.2587 12.7205 
774 1 35.4931 53.0104 12.7205 
775 1 35.4931 51.2587 14.4723 
776 1 33.7413 53.0104 14.4723 
777 1 37.2448 51.2587 12.7205 
778 1 38.9965 53.0104 12.7205 
779 1 38.9965 51.2587 14.4723 
780 1 37.2448 53.0104 14.4723 
781 1 40.7483 51.2587 12.7205 
782 1 42.5 53.0104 12.7205 
783 1 42.5 51.2587 14.4723 
784 1 40.7483 53.0104 14.4723 
785 1 44.2517 51.2587 12.7205 
786 1 46.0035 53.0104 12.7205 
787 1 46.0035 51.2587 14.4723 
788 1 44.2517 53.0104 14.4723 
789 1 47.7552 51.2587 12.7205 
790 1 49.5069 53.0104 12.7205 
791 1 49.5069 51.2587 14.4723 
792 1 47.7552 53.0104 14.4723 
793 1 51.2587 51.2587 12.7205 
794 1 53.0104 53.0104 12.7205 
795 1 53.0104 51.2587 14.4723 
796 1 51.2587 53.0104 14.4723 
797 1 54.7621 51.2587 12.7205 
798 1 56.5139 53.0104 12.7205 
799 1 56.5139 51.2587 14.4723 
800 1 54.7621 53.0104 14.4723 
801 1 58.2656 51.2587 12.7205 
802 1 60.0173 53.0104 12.7205 
803 1 60.0173 51.2587 14.4723 
804 1 58.2656 53.0104 14.4723 
805 1 61.7691 51.2587 12.7205 
806 1 63.5208 53.0104 12.7205 
807 1 63.5208 51.2587 14.4723 
808 1 61.7691 53.0104 14.4723 
809 1 65.2725 51.2587 12.7205 
810 1 67.0243 53.0104 12.7205 
811 1 67.0243 51.2587 14.4723 
812 1 65.2725 53.0104 14.4723 
813 1 68.776 51.2587 12.7205 
814 1 70.5277 53.0104 12.7205 
815 1 70.5277 51.2587 14.4723 
816 1 68.776 53.0104 14.4723 
817 1 12.7205 54.7621 12.7205 
818 1 14.4723 56.5139 12.7205 
819 1 14.4723 54.7621 14.4723 
820 1 12.7205 56.5139 14.4723 
821 1 16.224 54.7621 12.7205 
822 1 17.9757 56.5139 12.7205 
823 1 17.9757 54.7621 14.4723 
824 1 16.224 56.5139 14.4723 
825 1 19.7275 54.7621 12.7205 
826 1 21.4792 56.5139 12.7205 
827 1 21.4792 54.7621 14.4723 
828 1 19.7275 56.5139 14.4723 
829 1 23.2309 54.7621 12.7205 
830 1 24.9827 56.5139 12.7205 
831 1 24.9827 54.7621 14.4723 
832 1 23.2309 56.5139 14.4723 
833 1 26.7344 54.7621 12.7205 
834 1 28.4861 56.5139 12.7205 
835 1 28.4861 54.7621 14.4723 
836 1 26.7344 56.5139 14.4723 
837 1 30.2379 54.7621 12.7205 
838 1 31.9896 56.5139 12.7205 
839 1 31.9896 54.7621 14.4723 
840 1 30.2379 56.5139 14.4723 
841 1 33.7413 54.7621 12.7205 
842 1 35.4931 56.5139 12.7205 
843 1 35.4931 54.7621 14.4723 
844 1 33.7413 56.5139 14.4723 
845 1 37.2448 54.7621 12.7205 
846 1 38.9965 56.5139 12.7205 
847 1 38.9965 54.7621 14.4723 
848 1 37.2448 56.5139 14.4723 
849 1 40.7483 54.7621 12.7205 
850 1 42.5 56.5139 12.7205 
851 1 42.5 54.7621 14.4723 
852 1 40.7483 56.5139 14.4723 
853 1 44.2517 54.7621 12.7205 
854 1 46.0035 56.5139 12.7205 
855 1 46.0035 54.7621 14.4723 
856 1 44.2517 56.5139 14.4723 
857 1 47.7552 54.7621 12.7205 
858 1 49.5069 56.5139 12.7205 
859 1 49.5069 54.7621 14.4723 
860 1 47.7552 56.5139 14.4723 
861 1 51.2587 54.7621 12.7205 
862 1 53.0104 56.5139 12.7205 
863 1 53.0104 54.7621 14.4723 
864 1 51.2587 56.5139 14.4723 
865 1 54.7621 54.7621 12.7205 
866 1 56.5139 56.5139 12.7205 
867 1 56.5139 54.7621 14.4723 
868 1 54.7621 56.5139 14.4723 
869 1 58.2656 54.7621 12.7205 
870 1 60.0173 56.5139 12.7205 
871 1 60.0173 54.7621 14.4723 
872 1 58.2656 56.5139 14.4723 
873 1 61.7691 54.7621 12.7205 
874 1 63.5208 56.5139 12.7205 
875 1 63.5208 54.7621 14.4723 
876 1 61.7691 56.5139 14.4723 
877 1 65.2725 54.7621 12.7205 
878 1 67.0243 56.5139 12.7205 
879 1 67.0243 54.7621 14.4723 
880 1 65.2725 56.5139 14.4723 
881 1 68.776 54.7621 12.7205 
882 1 70.5277 56.5139 12.7205 
883 1 70.5277 54.7621 14.4723 
884 1 68.776 56.5139 14.4723 
885 1 12.7205 58.2656 12.7205 
886 1 14.4723 60.0173 12.7205 
887 1 14.4723 58.2656 14.4723 
888 1 12.7205 60.0173 14.4723 
889 1 16.224 58.2656 12.7205 
890 1 17.9757 60.0173 12.7205 
891 1 17.9757 58.2656 14.4723 
892 1 16.224 60.0173 14.4723 
893 1 19.7275 58.2656 12.7205 
894 1 21.4792 60.0173 12.7205 
895 1 21.4792 58.2656 14.4723 
896 1 19.7275 60.0173 14.4723 
897 1 23.2309 58.2656 12.7205 
898 1 24.9827 60.0173 12.7205 
899 1 24.9827 58.2656 14.4723 
900 1 23.2309 60.0173 14.4723 
901 1 26.7344 58.2656 12.7205 
902 1 28.4861 60.0173 12.7205 
903 1 28.4861 58.2656 14.4723 
904 1 26.7344 60.0173 14.4723 
905 1 30.2379 58.2656 12.7205 
906 1 31.9896 60.0173 12.7205 
907 1 31.9896 58.2656 14.4723 
908 1 30.2379 60.0173 14.4723 
909 1 33.7413 58.2656 12.7205 
910 1 35.4931 60.0173 12.7205 
911 1 35.4931 58.2656 14.4723 
912 1 33.7413 60.0173 14.4723 
913 1 37.2448 58.2656 12.7205 
914 1 38.9965 60.0173 12.7205 
915 1 38.9965 58.2656 14.4723 
916 1 37.2448 60.0173 14.4723 
917 1 40.7483 58.2656 12.7205 
918 1 42.5 60.0173 12.7205 
919 1 42.5 58.2656 14.4723 
920 1 40.7483 60.0173 14.4723 
921 1 44.2517 58.2656 12.7205 
922 1 46.0035 60.0173 12.7205 
923 1 46.0035 58.2656 14.4723 
924 1 44.2517 60.0173 14.4723 
925 1 47.7552 58.2656 12.7205 
926 1 49.5069 60.0173 12.7205 
927 1 49.5069 58.2656 14.4723 
928 1 47.7552 60.0173 14.4723 
929 1 51.2587 58.2656 12.7205 
930 1 53.0104 60.0173 12.7205 
931 1 53.0104 58.2656 14.4723 
932 1 51.2587 60.0173 14.4723 
933 1 54.7621 58.2656 12.7205 
934 1 56.5139 60.0173 12.7205 
935 1 56.5139 58.2656 14.4723 
936 1 54.7621 60.0173 14.4723 
937 1 58.2656 58.2656 12.7205 
938 1 60.0173 60.0173 12.7205 
939 1 60.0173 58.2656 14.4723 
940 1 58.2656 60.0173 14.4723 
941 1 61.7691 58.2656 12.7205 
942 1 63.5208 60.0173 12.7205 
943 1 63.5208 58.2656 14.4723 
944 1 61.7691 60.0173 14.4723 
945 1 65.2725 58.2656 12.7205 
946 1 67.0243 60.0173 12.7205 
947 1 67.0243 58.2656 14.4723 
948 1 65.2725 60.0173 14.4723 
949 1 68.776 58.2656 12.7205 
950 1 70.5277 60.0173 12.7205 
951 1 70.5277 58.2656 14.4723 
952 1 68.776 60.0173 14.4723 
953 1 12.7205 61.7691 12.7205 
954 1 14.4723 63.5208 12.7205 
955 1 14.4723 61.7691 14.4723 
956 1 12.7205 63.5208 14.4723 
957 1 16.224 61.7691 12.7205 
958 1 17.9757 63.5208 12.7205 
959 1 17.9757 61.7691 14.4723 
960 1 16.224 63.5208 14.4723 
961 1 19.7275 61.7691 12.7205 
962 1 21.4792 63.5208 12.7205 
963 1 21.4792 61.7691 14.4723 
964 1 19.7275 63.5208 14.4723 
965 1 23.2309 61.7691 12.7205 
966 1 24.9827 63.5208 12.7205 
967 1 24.9827 61.7691 14.4723 
968 1 23.2309 63.5208 14.4723 
969 1 26.7344 61.7691 12.7205 
970 1 28.4861 63.5208 12.7205 
971 1 28.4861 61.7691 14.4723 
972 1 26.7344 63.5208 14.4723 