ITEM: TIMESTEP
21
ITEM: NUMBER OF ATOMS
19652
ITEM: BOX BOUNDS pp pp pp
3.8519344629676238e+00 8.1148065537032281e+01
3.8519344629676238e+00 8.1148065537032281e+01
3.8519344629676238e+00 8.1148065537032281e+01
ITEM: ATOMS id type xu yu zu 
1 2 3.85193 3.85193 3.85193 
2 2 6.12535 6.12535 3.85193 
3 2 6.12535 3.85193 6.12535 
4 2 3.85193 6.12535 6.12535 
5 2 8.39877 3.85193 3.85193 
6 2 10.6722 6.12535 3.85193 
7 2 10.6722 3.85193 6.12535 
8 2 8.39877 6.12535 6.12535 
9 2 12.9456 3.85193 3.85193 
10 2 15.219 6.12535 3.85193 
11 2 15.219 3.85193 6.12535 
12 2 12.9456 6.12535 6.12535 
13 2 17.4924 3.85193 3.85193 
14 2 19.7658 6.12535 3.85193 
15 2 19.7658 3.85193 6.12535 
16 2 17.4924 6.12535 6.12535 
17 2 22.0393 3.85193 3.85193 
18 2 24.3127 6.12535 3.85193 
19 2 24.3127 3.85193 6.12535 
20 2 22.0393 6.12535 6.12535 
21 2 26.5861 3.85193 3.85193 
22 2 28.8595 6.12535 3.85193 
23 2 28.8595 3.85193 6.12535 
24 2 26.5861 6.12535 6.12535 
25 2 31.1329 3.85193 3.85193 
26 2 33.4063 6.12535 3.85193 
27 2 33.4063 3.85193 6.12535 
28 2 31.1329 6.12535 6.12535 
29 2 35.6798 3.85193 3.85193 
30 2 37.9532 6.12535 3.85193 
31 2 37.9532 3.85193 6.12535 
32 2 35.6798 6.12535 6.12535 
33 2 40.2266 3.85193 3.85193 
34 2 42.5 6.12535 3.85193 
35 2 42.5 3.85193 6.12535 
36 2 40.2266 6.12535 6.12535 
37 2 44.7734 3.85193 3.85193 
38 2 47.0468 6.12535 3.85193 
39 2 47.0468 3.85193 6.12535 
40 2 44.7734 6.12535 6.12535 
41 2 49.3202 3.85193 3.85193 
42 2 51.5937 6.12535 3.85193 
43 2 51.5937 3.85193 6.12535 
44 2 49.3202 6.12535 6.12535 
45 2 53.8671 3.85193 3.85193 
46 2 56.1405 6.12535 3.85193 
47 2 56.1405 3.85193 6.12535 
48 2 53.8671 6.12535 6.12535 
49 2 58.4139 3.85193 3.85193 
50 2 60.6873 6.12535 3.85193 
51 2 60.6873 3.85193 6.12535 
52 2 58.4139 6.12535 6.12535 
53 2 62.9607 3.85193 3.85193 
54 2 65.2342 6.12535 3.85193 
55 2 65.2342 3.85193 6.12535 
56 2 62.9607 6.12535 6.12535 
57 2 67.5076 3.85193 3.85193 
58 2 69.781 6.12535 3.85193 
59 2 69.781 3.85193 6.12535 
60 2 67.5076 6.12535 6.12535 
61 2 72.0544 3.85193 3.85193 
62 2 74.3278 6.12535 3.85193 
63 2 74.3278 3.85193 6.12535 
64 2 72.0544 6.12535 6.12535 
65 2 76.6012 3.85193 3.85193 
66 2 78.8746 6.12535 3.85193 
67 2 78.8746 3.85193 6.12535 
68 2 76.6012 6.12535 6.12535 
69 2 3.85193 8.39877 3.85193 
70 2 6.12535 10.6722 3.85193 
71 2 6.12535 8.39877 6.12535 
72 2 3.85193 10.6722 6.12535 
73 2 8.39877 8.39877 3.85193 
74 2 10.6722 10.6722 3.85193 
75 2 10.6722 8.39877 6.12535 
76 2 8.39877 10.6722 6.12535 
77 2 12.9456 8.39877 3.85193 
78 2 15.219 10.6722 3.85193 
79 2 15.219 8.39877 6.12535 
80 2 12.9456 10.6722 6.12535 
81 2 17.4924 8.39877 3.85193 
82 2 19.7658 10.6722 3.85193 
83 2 19.7658 8.39877 6.12535 
84 2 17.4924 10.6722 6.12535 
85 2 22.0393 8.39877 3.85193 
86 2 24.3127 10.6722 3.85193 
87 2 24.3127 8.39877 6.12535 
88 2 22.0393 10.6722 6.12535 
89 2 26.5861 8.39877 3.85193 
90 2 28.8595 10.6722 3.85193 
91 2 28.8595 8.39877 6.12535 
92 2 26.5861 10.6722 6.12535 
93 2 31.1329 8.39877 3.85193 
94 2 33.4063 10.6722 3.85193 
95 2 33.4063 8.39877 6.12535 
96 2 31.1329 10.6722 6.12535 
97 2 35.6798 8.39877 3.85193 
98 2 37.9532 10.6722 3.85193 
99 2 37.9532 8.39877 6.12535 
100 2 35.6798 10.6722 6.12535 
101 2 40.2266 8.39877 3.85193 
102 2 42.5 10.6722 3.85193 
103 2 42.5 8.39877 6.12535 
104 2 40.2266 10.6722 6.12535 
105 2 44.7734 8.39877 3.85193 
106 2 47.0468 10.6722 3.85193 
107 2 47.0468 8.39877 6.12535 
108 2 44.7734 10.6722 6.12535 
109 2 49.3202 8.39877 3.85193 
110 2 51.5937 10.6722 3.85193 
111 2 51.5937 8.39877 6.12535 
112 2 49.3202 10.6722 6.12535 
113 2 53.8671 8.39877 3.85193 
114 2 56.1405 10.6722 3.85193 
115 2 56.1405 8.39877 6.12535 
116 2 53.8671 10.6722 6.12535 
117 2 58.4139 8.39877 3.85193 
118 2 60.6873 10.6722 3.85193 
119 2 60.6873 8.39877 6.12535 
120 2 58.4139 10.6722 6.12535 
121 2 62.9607 8.39877 3.85193 
122 2 65.2342 10.6722 3.85193 
123 2 65.2342 8.39877 6.12535 
124 2 62.9607 10.6722 6.12535 
125 2 67.5076 8.39877 3.85193 
126 2 69.781 10.6722 3.85193 
127 2 69.781 8.39877 6.12535 
128 2 67.5076 10.6722 6.12535 
129 2 72.0544 8.39877 3.85193 
130 2 74.3278 10.6722 3.85193 
131 2 74.3278 8.39877 6.12535 
132 2 72.0544 10.6722 6.12535 
133 2 76.6012 8.39877 3.85193 
134 2 78.8746 10.6722 3.85193 
135 2 78.8746 8.39877 6.12535 
136 2 76.6012 10.6722 6.12535 
137 2 3.85193 12.9456 3.85193 
138 2 6.12535 15.219 3.85193 
139 2 6.12535 12.9456 6.12535 
140 2 3.85193 15.219 6.12535 
141 2 8.39877 12.9456 3.85193 
142 2 10.6722 15.219 3.85193 
143 2 10.6722 12.9456 6.12535 
144 2 8.39877 15.219 6.12535 
145 2 12.9456 12.9456 3.85193 
146 2 15.219 15.219 3.85193 
147 2 15.219 12.9456 6.12535 
148 2 12.9456 15.219 6.12535 
149 2 17.4924 12.9456 3.85193 
150 2 19.7658 15.219 3.85193 
151 2 19.7658 12.9456 6.12535 
152 2 17.4924 15.219 6.12535 
153 2 22.0393 12.9456 3.85193 
154 2 24.3127 15.219 3.85193 
155 2 24.3127 12.9456 6.12535 
156 2 22.0393 15.219 6.12535 
157 2 26.5861 12.9456 3.85193 
158 2 28.8595 15.219 3.85193 
159 2 28.8595 12.9456 6.12535 
160 2 26.5861 15.219 6.12535 
161 2 31.1329 12.9456 3.85193 
162 2 33.4063 15.219 3.85193 
163 2 33.4063 12.9456 6.12535 
164 2 31.1329 15.219 6.12535 
165 2 35.6798 12.9456 3.85193 
166 2 37.9532 15.219 3.85193 
167 2 37.9532 12.9456 6.12535 
168 2 35.6798 15.219 6.12535 
169 2 40.2266 12.9456 3.85193 
170 2 42.5 15.219 3.85193 
171 2 42.5 12.9456 6.12535 
172 2 40.2266 15.219 6.12535 
173 2 44.7734 12.9456 3.85193 
174 2 47.0468 15.219 3.85193 
175 2 47.0468 12.9456 6.12535 
176 2 44.7734 15.219 6.12535 
177 2 49.3202 12.9456 3.85193 
178 2 51.5937 15.219 3.85193 
179 2 51.5937 12.9456 6.12535 
180 2 49.3202 15.219 6.12535 
181 2 53.8671 12.9456 3.85193 
182 2 56.1405 15.219 3.85193 
183 2 56.1405 12.9456 6.12535 
184 2 53.8671 15.219 6.12535 
185 2 58.4139 12.9456 3.85193 
186 2 60.6873 15.219 3.85193 
187 2 60.6873 12.9456 6.12535 
188 2 58.4139 15.219 6.12535 
189 2 62.9607 12.9456 3.85193 
190 2 65.2342 15.219 3.85193 
191 2 65.2342 12.9456 6.12535 
192 2 62.9607 15.219 6.12535 
193 2 67.5076 12.9456 3.85193 
194 2 69.781 15.219 3.85193 
195 2 69.781 12.9456 6.12535 
196 2 67.5076 15.219 6.12535 
197 2 72.0544 12.9456 3.85193 
198 2 74.3278 15.219 3.85193 
199 2 74.3278 12.9456 6.12535 
200 2 72.0544 15.219 6.12535 
201 2 76.6012 12.9456 3.85193 
202 2 78.8746 15.219 3.85193 
203 2 78.8746 12.9456 6.12535 
204 2 76.6012 15.219 6.12535 
205 2 3.85193 17.4924 3.85193 
206 2 6.12535 19.7658 3.85193 
207 2 6.12535 17.4924 6.12535 
208 2 3.85193 19.7658 6.12535 
209 2 8.39877 17.4924 3.85193 
210 2 10.6722 19.7658 3.85193 
211 2 10.6722 17.4924 6.12535 
212 2 8.39877 19.7658 6.12535 
213 2 12.9456 17.4924 3.85193 
214 2 15.219 19.7658 3.85193 
215 2 15.219 17.4924 6.12535 
216 2 12.9456 19.7658 6.12535 
217 2 17.4924 17.4924 3.85193 
218 2 19.7658 19.7658 3.85193 
219 2 19.7658 17.4924 6.12535 
220 2 17.4924 19.7658 6.12535 
221 2 22.0393 17.4924 3.85193 
222 2 24.3127 19.7658 3.85193 
223 2 24.3127 17.4924 6.12535 
224 2 22.0393 19.7658 6.12535 
225 2 26.5861 17.4924 3.85193 
226 2 28.8595 19.7658 3.85193 
227 2 28.8595 17.4924 6.12535 
228 2 26.5861 19.7658 6.12535 
229 2 31.1329 17.4924 3.85193 
230 2 33.4063 19.7658 3.85193 
231 2 33.4063 17.4924 6.12535 
232 2 31.1329 19.7658 6.12535 
233 2 35.6798 17.4924 3.85193 
234 2 37.9532 19.7658 3.85193 
235 2 37.9532 17.4924 6.12535 
236 2 35.6798 19.7658 6.12535 
237 2 40.2266 17.4924 3.85193 
238 2 42.5 19.7658 3.85193 
239 2 42.5 17.4924 6.12535 
240 2 40.2266 19.7658 6.12535 
241 2 44.7734 17.4924 3.85193 
242 2 47.0468 19.7658 3.85193 
243 2 47.0468 17.4924 6.12535 
244 2 44.7734 19.7658 6.12535 
245 2 49.3202 17.4924 3.85193 
246 2 51.5937 19.7658 3.85193 
247 2 51.5937 17.4924 6.12535 
248 2 49.3202 19.7658 6.12535 
249 2 53.8671 17.4924 3.85193 
250 2 56.1405 19.7658 3.85193 
251 2 56.1405 17.4924 6.12535 
252 2 53.8671 19.7658 6.12535 
253 2 58.4139 17.4924 3.85193 
254 2 60.6873 19.7658 3.85193 
255 2 60.6873 17.4924 6.12535 
256 2 58.4139 19.7658 6.12535 
257 2 62.9607 17.4924 3.85193 
258 2 65.2342 19.7658 3.85193 
259 2 65.2342 17.4924 6.12535 
260 2 62.9607 19.7658 6.12535 
261 2 67.5076 17.4924 3.85193 
262 2 69.781 19.7658 3.85193 
263 2 69.781 17.4924 6.12535 
264 2 67.5076 19.7658 6.12535 
265 2 72.0544 17.4924 3.85193 
266 2 74.3278 19.7658 3.85193 
267 2 74.3278 17.4924 6.12535 
268 2 72.0544 19.7658 6.12535 
269 2 76.6012 17.4924 3.85193 
270 2 78.8746 19.7658 3.85193 
271 2 78.8746 17.4924 6.12535 
272 2 76.6012 19.7658 6.12535 
273 2 3.85193 22.0393 3.85193 
274 2 6.12535 24.3127 3.85193 
275 2 6.12535 22.0393 6.12535 
276 2 3.85193 24.3127 6.12535 
277 2 8.39877 22.0393 3.85193 
278 2 10.6722 24.3127 3.85193 
279 2 10.6722 22.0393 6.12535 
280 2 8.39877 24.3127 6.12535 
281 2 12.9456 22.0393 3.85193 
282 2 15.219 24.3127 3.85193 
283 2 15.219 22.0393 6.12535 
284 2 12.9456 24.3127 6.12535 
285 2 17.4924 22.0393 3.85193 
286 2 19.7658 24.3127 3.85193 
287 2 19.7658 22.0393 6.12535 
288 2 17.4924 24.3127 6.12535 
289 2 22.0393 22.0393 3.85193 
290 2 24.3127 24.3127 3.85193 
291 2 24.3127 22.0393 6.12535 
292 2 22.0393 24.3127 6.12535 
293 2 26.5861 22.0393 3.85193 
294 2 28.8595 24.3127 3.85193 
295 2 28.8595 22.0393 6.12535 
296 2 26.5861 24.3127 6.12535 
297 2 31.1329 22.0393 3.85193 
298 2 33.4063 24.3127 3.85193 
299 2 33.4063 22.0393 6.12535 
300 2 31.1329 24.3127 6.12535 
301 2 35.6798 22.0393 3.85193 
302 2 37.9532 24.3127 3.85193 
303 2 37.9532 22.0393 6.12535 
304 2 35.6798 24.3127 6.12535 
305 2 40.2266 22.0393 3.85193 
306 2 42.5 24.3127 3.85193 
307 2 42.5 22.0393 6.12535 
308 2 40.2266 24.3127 6.12535 
309 2 44.7734 22.0393 3.85193 
310 2 47.0468 24.3127 3.85193 
311 2 47.0468 22.0393 6.12535 
312 2 44.7734 24.3127 6.12535 
313 2 49.3202 22.0393 3.85193 
314 2 51.5937 24.3127 3.85193 
315 2 51.5937 22.0393 6.12535 
316 2 49.3202 24.3127 6.12535 
317 2 53.8671 22.0393 3.85193 
318 2 56.1405 24.3127 3.85193 
319 2 56.1405 22.0393 6.12535 
320 2 53.8671 24.3127 6.12535 
321 2 58.4139 22.0393 3.85193 
322 2 60.6873 24.3127 3.85193 
323 2 60.6873 22.0393 6.12535 
324 2 58.4139 24.3127 6.12535 
325 2 62.9607 22.0393 3.85193 
326 2 65.2342 24.3127 3.85193 
327 2 65.2342 22.0393 6.12535 
328 2 62.9607 24.3127 6.12535 
329 2 67.5076 22.0393 3.85193 
330 2 69.781 24.3127 3.85193 
331 2 69.781 22.0393 6.12535 
332 2 67.5076 24.3127 6.12535 
333 2 72.0544 22.0393 3.85193 
334 2 74.3278 24.3127 3.85193 
335 2 74.3278 22.0393 6.12535 
336 2 72.0544 24.3127 6.12535 
337 2 76.6012 22.0393 3.85193 
338 2 78.8746 24.3127 3.85193 
339 2 78.8746 22.0393 6.12535 
340 2 76.6012 24.3127 6.12535 
341 2 3.85193 26.5861 3.85193 
342 2 6.12535 28.8595 3.85193 
343 2 6.12535 26.5861 6.12535 
344 2 3.85193 28.8595 6.12535 
345 2 8.39877 26.5861 3.85193 
346 2 10.6722 28.8595 3.85193 
347 2 10.6722 26.5861 6.12535 
348 2 8.39877 28.8595 6.12535 
349 2 12.9456 26.5861 3.85193 
350 2 15.219 28.8595 3.85193 
351 2 15.219 26.5861 6.12535 
352 2 12.9456 28.8595 6.12535 
353 2 17.4924 26.5861 3.85193 
354 2 19.7658 28.8595 3.85193 
355 2 19.7658 26.5861 6.12535 
356 2 17.4924 28.8595 6.12535 
357 2 22.0393 26.5861 3.85193 
358 2 24.3127 28.8595 3.85193 
359 2 24.3127 26.5861 6.12535 
360 2 22.0393 28.8595 6.12535 
361 2 26.5861 26.5861 3.85193 
362 2 28.8595 28.8595 3.85193 
363 2 28.8595 26.5861 6.12535 
364 2 26.5861 28.8595 6.12535 
365 2 31.1329 26.5861 3.85193 
366 2 33.4063 28.8595 3.85193 
367 2 33.4063 26.5861 6.12535 
368 2 31.1329 28.8595 6.12535 
369 2 35.6798 26.5861 3.85193 
370 2 37.9532 28.8595 3.85193 
371 2 37.9532 26.5861 6.12535 
372 2 35.6798 28.8595 6.12535 
373 2 40.2266 26.5861 3.85193 
374 2 42.5 28.8595 3.85193 
375 2 42.5 26.5861 6.12535 
376 2 40.2266 28.8595 6.12535 
377 2 44.7734 26.5861 3.85193 
378 2 47.0468 28.8595 3.85193 
379 2 47.0468 26.5861 6.12535 
380 2 44.7734 28.8595 6.12535 
381 2 49.3202 26.5861 3.85193 
382 2 51.5937 28.8595 3.85193 
383 2 51.5937 26.5861 6.12535 
384 2 49.3202 28.8595 6.12535 
385 2 53.8671 26.5861 3.85193 
386 2 56.1405 28.8595 3.85193 
387 2 56.1405 26.5861 6.12535 
388 2 53.8671 28.8595 6.12535 
389 2 58.4139 26.5861 3.85193 
390 2 60.6873 28.8595 3.85193 
391 2 60.6873 26.5861 6.12535 
392 2 58.4139 28.8595 6.12535 
393 2 62.9607 26.5861 3.85193 
394 2 65.2342 28.8595 3.85193 
395 2 65.2342 26.5861 6.12535 
396 2 62.9607 28.8595 6.12535 
397 2 67.5076 26.5861 3.85193 
398 2 69.781 28.8595 3.85193 
399 2 69.781 26.5861 6.12535 
400 2 67.5076 28.8595 6.12535 
401 2 72.0544 26.5861 3.85193 
402 2 74.3278 28.8595 3.85193 
403 2 74.3278 26.5861 6.12535 
404 2 72.0544 28.8595 6.12535 
405 2 76.6012 26.5861 3.85193 
406 2 78.8746 28.8595 3.85193 
407 2 78.8746 26.5861 6.12535 
408 2 76.6012 28.8595 6.12535 
409 2 3.85193 31.1329 3.85193 
410 2 6.12535 33.4063 3.85193 
411 2 6.12535 31.1329 6.12535 
412 2 3.85193 33.4063 6.12535 
413 2 8.39877 31.1329 3.85193 
414 2 10.6722 33.4063 3.85193 
415 2 10.6722 31.1329 6.12535 
416 2 8.39877 33.4063 6.12535 
417 2 12.9456 31.1329 3.85193 
418 2 15.219 33.4063 3.85193 
419 2 15.219 31.1329 6.12535 
420 2 12.9456 33.4063 6.12535 
421 2 17.4924 31.1329 3.85193 
422 2 19.7658 33.4063 3.85193 
423 2 19.7658 31.1329 6.12535 
424 2 17.4924 33.4063 6.12535 
425 2 22.0393 31.1329 3.85193 
426 2 24.3127 33.4063 3.85193 
427 2 24.3127 31.1329 6.12535 
428 2 22.0393 33.4063 6.12535 
429 2 26.5861 31.1329 3.85193 
430 2 28.8595 33.4063 3.85193 
431 2 28.8595 31.1329 6.12535 
432 2 26.5861 33.4063 6.12535 
433 2 31.1329 31.1329 3.85193 
434 2 33.4063 33.4063 3.85193 
435 2 33.4063 31.1329 6.12535 
436 2 31.1329 33.4063 6.12535 
437 2 35.6798 31.1329 3.85193 
438 2 37.9532 33.4063 3.85193 
439 2 37.9532 31.1329 6.12535 
440 2 35.6798 33.4063 6.12535 
441 2 40.2266 31.1329 3.85193 
442 2 42.5 33.4063 3.85193 
443 2 42.5 31.1329 6.12535 
444 2 40.2266 33.4063 6.12535 
445 2 44.7734 31.1329 3.85193 
446 2 47.0468 33.4063 3.85193 
447 2 47.0468 31.1329 6.12535 
448 2 44.7734 33.4063 6.12535 
449 2 49.3202 31.1329 3.85193 
450 2 51.5937 33.4063 3.85193 
451 2 51.5937 31.1329 6.12535 
452 2 49.3202 33.4063 6.12535 
453 2 53.8671 31.1329 3.85193 
454 2 56.1405 33.4063 3.85193 
455 2 56.1405 31.1329 6.12535 
456 2 53.8671 33.4063 6.12535 
457 2 58.4139 31.1329 3.85193 
458 2 60.6873 33.4063 3.85193 
459 2 60.6873 31.1329 6.12535 
460 2 58.4139 33.4063 6.12535 
461 2 62.9607 31.1329 3.85193 
462 2 65.2342 33.4063 3.85193 
463 2 65.2342 31.1329 6.12535 
464 2 62.9607 33.4063 6.12535 
465 2 67.5076 31.1329 3.85193 
466 2 69.781 33.4063 3.85193 
467 2 69.781 31.1329 6.12535 
468 2 67.5076 33.4063 6.12535 
469 2 72.0544 31.1329 3.85193 
470 2 74.3278 33.4063 3.85193 
471 2 74.3278 31.1329 6.12535 
472 2 72.0544 33.4063 6.12535 
473 2 76.6012 31.1329 3.85193 
474 2 78.8746 33.4063 3.85193 
475 2 78.8746 31.1329 6.12535 
476 2 76.6012 33.4063 6.12535 
477 2 3.85193 35.6798 3.85193 
478 2 6.12535 37.9532 3.85193 
479 2 6.12535 35.6798 6.12535 
480 2 3.85193 37.9532 6.12535 
481 2 8.39877 35.6798 3.85193 
482 2 10.6722 37.9532 3.85193 
483 2 10.6722 35.6798 6.12535 
484 2 8.39877 37.9532 6.12535 
485 2 12.9456 35.6798 3.85193 
486 2 15.219 37.9532 3.85193 
487 2 15.219 35.6798 6.12535 
488 2 12.9456 37.9532 6.12535 
489 2 17.4924 35.6798 3.85193 
490 2 19.7658 37.9532 3.85193 
491 2 19.7658 35.6798 6.12535 
492 2 17.4924 37.9532 6.12535 
493 2 22.0393 35.6798 3.85193 
494 2 24.3127 37.9532 3.85193 
495 2 24.3127 35.6798 6.12535 
496 2 22.0393 37.9532 6.12535 
497 2 26.5861 35.6798 3.85193 
498 2 28.8595 37.9532 3.85193 
499 2 28.8595 35.6798 6.12535 
500 2 26.5861 37.9532 6.12535 
501 2 31.1329 35.6798 3.85193 
502 2 33.4063 37.9532 3.85193 
503 2 33.4063 35.6798 6.12535 
504 2 31.1329 37.9532 6.12535 
505 2 35.6798 35.6798 3.85193 
506 2 37.9532 37.9532 3.85193 
507 2 37.9532 35.6798 6.12535 
508 2 35.6798 37.9532 6.12535 
509 2 40.2266 35.6798 3.85193 
510 2 42.5 37.9532 3.85193 
511 2 42.5 35.6798 6.12535 
512 2 40.2266 37.9532 6.12535 
513 2 44.7734 35.6798 3.85193 
514 2 47.0468 37.9532 3.85193 
515 2 47.0468 35.6798 6.12535 
516 2 44.7734 37.9532 6.12535 
517 2 49.3202 35.6798 3.85193 
518 2 51.5937 37.9532 3.85193 
519 2 51.5937 35.6798 6.12535 
520 2 49.3202 37.9532 6.12535 
521 2 53.8671 35.6798 3.85193 
522 2 56.1405 37.9532 3.85193 
523 2 56.1405 35.6798 6.12535 
524 2 53.8671 37.9532 6.12535 
525 2 58.4139 35.6798 3.85193 
526 2 60.6873 37.9532 3.85193 
527 2 60.6873 35.6798 6.12535 
528 2 58.4139 37.9532 6.12535 
529 2 62.9607 35.6798 3.85193 
530 2 65.2342 37.9532 3.85193 
531 2 65.2342 35.6798 6.12535 
532 2 62.9607 37.9532 6.12535 
533 2 67.5076 35.6798 3.85193 
534 2 69.781 37.9532 3.85193 
535 2 69.781 35.6798 6.12535 
536 2 67.5076 37.9532 6.12535 
537 2 72.0544 35.6798 3.85193 
538 2 74.3278 37.9532 3.85193 
539 2 74.3278 35.6798 6.12535 
540 2 72.0544 37.9532 6.12535 
541 2 76.6012 35.6798 3.85193 
542 2 78.8746 37.9532 3.85193 
543 2 78.8746 35.6798 6.12535 
544 2 76.6012 37.9532 6.12535 
545 2 3.85193 40.2266 3.85193 
546 2 6.12535 42.5 3.85193 
547 2 6.12535 40.2266 6.12535 
548 2 3.85193 42.5 6.12535 
549 2 8.39877 40.2266 3.85193 
550 2 10.6722 42.5 3.85193 
551 2 10.6722 40.2266 6.12535 
552 2 8.39877 42.5 6.12535 
553 2 12.9456 40.2266 3.85193 
554 2 15.219 42.5 3.85193 
555 2 15.219 40.2266 6.12535 
556 2 12.9456 42.5 6.12535 
557 2 17.4924 40.2266 3.85193 
558 2 19.7658 42.5 3.85193 
559 2 19.7658 40.2266 6.12535 
560 2 17.4924 42.5 6.12535 
561 2 22.0393 40.2266 3.85193 
562 2 24.3127 42.5 3.85193 
563 2 24.3127 40.2266 6.12535 
564 2 22.0393 42.5 6.12535 
565 2 26.5861 40.2266 3.85193 
566 2 28.8595 42.5 3.85193 
567 2 28.8595 40.2266 6.12535 
568 2 26.5861 42.5 6.12535 
569 2 31.1329 40.2266 3.85193 
570 2 33.4063 42.5 3.85193 
571 2 33.4063 40.2266 6.12535 
572 2 31.1329 42.5 6.12535 
573 2 35.6798 40.2266 3.85193 
574 2 37.9532 42.5 3.85193 
575 2 37.9532 40.2266 6.12535 
576 2 35.6798 42.5 6.12535 
577 2 40.2266 40.2266 3.85193 
578 2 42.5 42.5 3.85193 
579 2 42.5 40.2266 6.12535 
580 2 40.2266 42.5 6.12535 
581 2 44.7734 40.2266 3.85193 
582 2 47.0468 42.5 3.85193 
583 2 47.0468 40.2266 6.12535 
584 2 44.7734 42.5 6.12535 
585 2 49.3202 40.2266 3.85193 
586 2 51.5937 42.5 3.85193 
587 2 51.5937 40.2266 6.12535 
588 2 49.3202 42.5 6.12535 
589 2 53.8671 40.2266 3.85193 
590 2 56.1405 42.5 3.85193 
591 2 56.1405 40.2266 6.12535 
592 2 53.8671 42.5 6.12535 
593 2 58.4139 40.2266 3.85193 
594 2 60.6873 42.5 3.85193 
595 2 60.6873 40.2266 6.12535 
596 2 58.4139 42.5 6.12535 
597 2 62.9607 40.2266 3.85193 
598 2 65.2342 42.5 3.85193 
599 2 65.2342 40.2266 6.12535 
600 2 62.9607 42.5 6.12535 
601 2 67.5076 40.2266 3.85193 
602 2 69.781 42.5 3.85193 
603 2 69.781 40.2266 6.12535 
604 2 67.5076 42.5 6.12535 
605 2 72.0544 40.2266 3.85193 
606 2 74.3278 42.5 3.85193 
607 2 74.3278 40.2266 6.12535 
608 2 72.0544 42.5 6.12535 
609 2 76.6012 40.2266 3.85193 
610 2 78.8746 42.5 3.85193 
611 2 78.8746 40.2266 6.12535 
612 2 76.6012 42.5 6.12535 
613 2 3.85193 44.7734 3.85193 
614 2 6.12535 47.0468 3.85193 
615 2 6.12535 44.7734 6.12535 
616 2 3.85193 47.0468 6.12535 
617 2 8.39877 44.7734 3.85193 
618 2 10.6722 47.0468 3.85193 
619 2 10.6722 44.7734 6.12535 
620 2 8.39877 47.0468 6.12535 
621 2 12.9456 44.7734 3.85193 
622 2 15.219 47.0468 3.85193 
623 2 15.219 44.7734 6.12535 
624 2 12.9456 47.0468 6.12535 
625 2 17.4924 44.7734 3.85193 
626 2 19.7658 47.0468 3.85193 
627 2 19.7658 44.7734 6.12535 
628 2 17.4924 47.0468 6.12535 
629 2 22.0393 44.7734 3.85193 
630 2 24.3127 47.0468 3.85193 
631 2 24.3127 44.7734 6.12535 
632 2 22.0393 47.0468 6.12535 
633 2 26.5861 44.7734 3.85193 
634 2 28.8595 47.0468 3.85193 
635 2 28.8595 44.7734 6.12535 
636 2 26.5861 47.0468 6.12535 
637 2 31.1329 44.7734 3.85193 
638 2 33.4063 47.0468 3.85193 
639 2 33.4063 44.7734 6.12535 
640 2 31.1329 47.0468 6.12535 
641 2 35.6798 44.7734 3.85193 
642 2 37.9532 47.0468 3.85193 
643 2 37.9532 44.7734 6.12535 
644 2 35.6798 47.0468 6.12535 
645 2 40.2266 44.7734 3.85193 
646 2 42.5 47.0468 3.85193 
647 2 42.5 44.7734 6.12535 
648 2 40.2266 47.0468 6.12535 
649 2 44.7734 44.7734 3.85193 
650 2 47.0468 47.0468 3.85193 
651 2 47.0468 44.7734 6.12535 
652 2 44.7734 47.0468 6.12535 
653 2 49.3202 44.7734 3.85193 
654 2 51.5937 47.0468 3.85193 
655 2 51.5937 44.7734 6.12535 
656 2 49.3202 47.0468 6.12535 
657 2 53.8671 44.7734 3.85193 
658 2 56.1405 47.0468 3.85193 
659 2 56.1405 44.7734 6.12535 
660 2 53.8671 47.0468 6.12535 
661 2 58.4139 44.7734 3.85193 
662 2 60.6873 47.0468 3.85193 
663 2 60.6873 44.7734 6.12535 
664 2 58.4139 47.0468 6.12535 
665 2 62.9607 44.7734 3.85193 
666 2 65.2342 47.0468 3.85193 
667 2 65.2342 44.7734 6.12535 
668 2 62.9607 47.0468 6.12535 
669 2 67.5076 44.7734 3.85193 
670 2 69.781 47.0468 3.85193 
671 2 69.781 44.7734 6.12535 
672 2 67.5076 47.0468 6.12535 
673 2 72.0544 44.7734 3.85193 
674 2 74.3278 47.0468 3.85193 
675 2 74.3278 44.7734 6.12535 
676 2 72.0544 47.0468 6.12535 
677 2 76.6012 44.7734 3.85193 
678 2 78.8746 47.0468 3.85193 
679 2 78.8746 44.7734 6.12535 
680 2 76.6012 47.0468 6.12535 
681 2 3.85193 49.3202 3.85193 
682 2 6.12535 51.5937 3.85193 
683 2 6.12535 49.3202 6.12535 
684 2 3.85193 51.5937 6.12535 
685 2 8.39877 49.3202 3.85193 
686 2 10.6722 51.5937 3.85193 
687 2 10.6722 49.3202 6.12535 
688 2 8.39877 51.5937 6.12535 
689 2 12.9456 49.3202 3.85193 
690 2 15.219 51.5937 3.85193 
691 2 15.219 49.3202 6.12535 
692 2 12.9456 51.5937 6.12535 
693 2 17.4924 49.3202 3.85193 
694 2 19.7658 51.5937 3.85193 
695 2 19.7658 49.3202 6.12535 
696 2 17.4924 51.5937 6.12535 
697 2 22.0393 49.3202 3.85193 
698 2 24.3127 51.5937 3.85193 
699 2 24.3127 49.3202 6.12535 
700 2 22.0393 51.5937 6.12535 
701 2 26.5861 49.3202 3.85193 
702 2 28.8595 51.5937 3.85193 
703 2 28.8595 49.3202 6.12535 
704 2 26.5861 51.5937 6.12535 
705 2 31.1329 49.3202 3.85193 
706 2 33.4063 51.5937 3.85193 
707 2 33.4063 49.3202 6.12535 
708 2 31.1329 51.5937 6.12535 
709 2 35.6798 49.3202 3.85193 
710 2 37.9532 51.5937 3.85193 
711 2 37.9532 49.3202 6.12535 
712 2 35.6798 51.5937 6.12535 
713 2 40.2266 49.3202 3.85193 
714 2 42.5 51.5937 3.85193 
715 2 42.5 49.3202 6.12535 
716 2 40.2266 51.5937 6.12535 
717 2 44.7734 49.3202 3.85193 
718 2 47.0468 51.5937 3.85193 
719 2 47.0468 49.3202 6.12535 
720 2 44.7734 51.5937 6.12535 
721 2 49.3202 49.3202 3.85193 
722 2 51.5937 51.5937 3.85193 
723 2 51.5937 49.3202 6.12535 
724 2 49.3202 51.5937 6.12535 
725 2 53.8671 49.3202 3.85193 
726 2 56.1405 51.5937 3.85193 
727 2 56.1405 49.3202 6.12535 
728 2 53.8671 51.5937 6.12535 
729 2 58.4139 49.3202 3.85193 
730 2 60.6873 51.5937 3.85193 
731 2 60.6873 49.3202 6.12535 
732 2 58.4139 51.5937 6.12535 
733 2 62.9607 49.3202 3.85193 
734 2 65.2342 51.5937 3.85193 
735 2 65.2342 49.3202 6.12535 
736 2 62.9607 51.5937 6.12535 
737 2 67.5076 49.3202 3.85193 
738 2 69.781 51.5937 3.85193 
739 2 69.781 49.3202 6.12535 
740 2 67.5076 51.5937 6.12535 
741 2 72.0544 49.3202 3.85193 
742 2 74.3278 51.5937 3.85193 
743 2 74.3278 49.3202 6.12535 
744 2 72.0544 51.5937 6.12535 
745 2 76.6012 49.3202 3.85193 
746 2 78.8746 51.5937 3.85193 
747 2 78.8746 49.3202 6.12535 
748 2 76.6012 51.5937 6.12535 
749 2 3.85193 53.8671 3.85193 
750 2 6.12535 56.1405 3.85193 
751 2 6.12535 53.8671 6.12535 
752 2 3.85193 56.1405 6.12535 
753 2 8.39877 53.8671 3.85193 
754 2 10.6722 56.1405 3.85193 
755 2 10.6722 53.8671 6.12535 
756 2 8.39877 56.1405 6.12535 
757 2 12.9456 53.8671 3.85193 
758 2 15.219 56.1405 3.85193 
759 2 15.219 53.8671 6.12535 
760 2 12.9456 56.1405 6.12535 
761 2 17.4924 53.8671 3.85193 
762 2 19.7658 56.1405 3.85193 
763 2 19.7658 53.8671 6.12535 
764 2 17.4924 56.1405 6.12535 
765 2 22.0393 53.8671 3.85193 
766 2 24.3127 56.1405 3.85193 
767 2 24.3127 53.8671 6.12535 
768 2 22.0393 56.1405 6.12535 
769 2 26.5861 53.8671 3.85193 
770 2 28.8595 56.1405 3.85193 
771 2 28.8595 53.8671 6.12535 
772 2 26.5861 56.1405 6.12535 
773 2 31.1329 53.8671 3.85193 
774 2 33.4063 56.1405 3.85193 
775 2 33.4063 53.8671 6.12535 
776 2 31.1329 56.1405 6.12535 
777 2 35.6798 53.8671 3.85193 
778 2 37.9532 56.1405 3.85193 
779 2 37.9532 53.8671 6.12535 
780 2 35.6798 56.1405 6.12535 
781 2 40.2266 53.8671 3.85193 
782 2 42.5 56.1405 3.85193 
783 2 42.5 53.8671 6.12535 
784 2 40.2266 56.1405 6.12535 
785 2 44.7734 53.8671 3.85193 
786 2 47.0468 56.1405 3.85193 
787 2 47.0468 53.8671 6.12535 
788 2 44.7734 56.1405 6.12535 
789 2 49.3202 53.8671 3.85193 
790 2 51.5937 56.1405 3.85193 
791 2 51.5937 53.8671 6.12535 
792 2 49.3202 56.1405 6.12535 
793 2 53.8671 53.8671 3.85193 
794 2 56.1405 56.1405 3.85193 
795 2 56.1405 53.8671 6.12535 
796 2 53.8671 56.1405 6.12535 
797 2 58.4139 53.8671 3.85193 
798 2 60.6873 56.1405 3.85193 
799 2 60.6873 53.8671 6.12535 
800 2 58.4139 56.1405 6.12535 
801 2 62.9607 53.8671 3.85193 
802 2 65.2342 56.1405 3.85193 
803 2 65.2342 53.8671 6.12535 
804 2 62.9607 56.1405 6.12535 
805 2 67.5076 53.8671 3.85193 
806 2 69.781 56.1405 3.85193 
807 2 69.781 53.8671 6.12535 
808 2 67.5076 56.1405 6.12535 
809 2 72.0544 53.8671 3.85193 
810 2 74.3278 56.1405 3.85193 
811 2 74.3278 53.8671 6.12535 
812 2 72.0544 56.1405 6.12535 
813 2 76.6012 53.8671 3.85193 
814 2 78.8746 56.1405 3.85193 
815 2 78.8746 53.8671 6.12535 
816 2 76.6012 56.1405 6.12535 
817 2 3.85193 58.4139 3.85193 
818 2 6.12535 60.6873 3.85193 
819 2 6.12535 58.4139 6.12535 
820 2 3.85193 60.6873 6.12535 
821 2 8.39877 58.4139 3.85193 
822 2 10.6722 60.6873 3.85193 
823 2 10.6722 58.4139 6.12535 
824 2 8.39877 60.6873 6.12535 
825 2 12.9456 58.4139 3.85193 
826 2 15.219 60.6873 3.85193 
827 2 15.219 58.4139 6.12535 
828 2 12.9456 60.6873 6.12535 
829 2 17.4924 58.4139 3.85193 
830 2 19.7658 60.6873 3.85193 
831 2 19.7658 58.4139 6.12535 
832 2 17.4924 60.6873 6.12535 
833 2 22.0393 58.4139 3.85193 
834 2 24.3127 60.6873 3.85193 
835 2 24.3127 58.4139 6.12535 
836 2 22.0393 60.6873 6.12535 
837 2 26.5861 58.4139 3.85193 
838 2 28.8595 60.6873 3.85193 
839 2 28.8595 58.4139 6.12535 
840 2 26.5861 60.6873 6.12535 
841 2 31.1329 58.4139 3.85193 
842 2 33.4063 60.6873 3.85193 
843 2 33.4063 58.4139 6.12535 
844 2 31.1329 60.6873 6.12535 
845 2 35.6798 58.4139 3.85193 
846 2 37.9532 60.6873 3.85193 
847 2 37.9532 58.4139 6.12535 
848 2 35.6798 60.6873 6.12535 
849 2 40.2266 58.4139 3.85193 
850 2 42.5 60.6873 3.85193 
851 2 42.5 58.4139 6.12535 
852 2 40.2266 60.6873 6.12535 
853 2 44.7734 58.4139 3.85193 
854 2 47.0468 60.6873 3.85193 
855 2 47.0468 58.4139 6.12535 
856 2 44.7734 60.6873 6.12535 
857 2 49.3202 58.4139 3.85193 
858 2 51.5937 60.6873 3.85193 
859 2 51.5937 58.4139 6.12535 
860 2 49.3202 60.6873 6.12535 
861 2 53.8671 58.4139 3.85193 
862 2 56.1405 60.6873 3.85193 
863 2 56.1405 58.4139 6.12535 
864 2 53.8671 60.6873 6.12535 
865 2 58.4139 58.4139 3.85193 
866 2 60.6873 60.6873 3.85193 
867 2 60.6873 58.4139 6.12535 
868 2 58.4139 60.6873 6.12535 
869 2 62.9607 58.4139 3.85193 
870 2 65.2342 60.6873 3.85193 
871 2 65.2342 58.4139 6.12535 
872 2 62.9607 60.6873 6.12535 
873 2 67.5076 58.4139 3.85193 
874 2 69.781 60.6873 3.85193 
875 2 69.781 58.4139 6.12535 
876 2 67.5076 60.6873 6.12535 
877 2 72.0544 58.4139 3.85193 
878 2 74.3278 60.6873 3.85193 
879 2 74.3278 58.4139 6.12535 
880 2 72.0544 60.6873 6.12535 
881 2 76.6012 58.4139 3.85193 
882 2 78.8746 60.6873 3.85193 
883 2 78.8746 58.4139 6.12535 
884 2 76.6012 60.6873 6.12535 
885 2 3.85193 62.9607 3.85193 
886 2 6.12535 65.2342 3.85193 
887 2 6.12535 62.9607 6.12535 
888 2 3.85193 65.2342 6.12535 
889 2 8.39877 62.9607 3.85193 
890 2 10.6722 65.2342 3.85193 
891 2 10.6722 62.9607 6.12535 
892 2 8.39877 65.2342 6.12535 
893 2 12.9456 62.9607 3.85193 
894 2 15.219 65.2342 3.85193 
895 2 15.219 62.9607 6.12535 
896 2 12.9456 65.2342 6.12535 
897 2 17.4924 62.9607 3.85193 
898 2 19.7658 65.2342 3.85193 
899 2 19.7658 62.9607 6.12535 
900 2 17.4924 65.2342 6.12535 
901 2 22.0393 62.9607 3.85193 
902 2 24.3127 65.2342 3.85193 
903 2 24.3127 62.9607 6.12535 
904 2 22.0393 65.2342 6.12535 
905 2 26.5861 62.9607 3.85193 
906 2 28.8595 65.2342 3.85193 
907 2 28.8595 62.9607 6.12535 
908 2 26.5861 65.2342 6.12535 
909 2 31.1329 62.9607 3.85193 
910 2 33.4063 65.2342 3.85193 
911 2 33.4063 62.9607 6.12535 
912 2 31.1329 65.2342 6.12535 
913 2 35.6798 62.9607 3.85193 
914 2 37.9532 65.2342 3.85193 
915 2 37.9532 62.9607 6.12535 
916 2 35.6798 65.2342 6.12535 
917 2 40.2266 62.9607 3.85193 
918 2 42.5 65.2342 3.85193 
919 2 42.5 62.9607 6.12535 
920 2 40.2266 65.2342 6.12535 
921 2 44.7734 62.9607 3.85193 
922 2 47.0468 65.2342 3.85193 
923 2 47.0468 62.9607 6.12535 
924 2 44.7734 65.2342 6.12535 
925 2 49.3202 62.9607 3.85193 
926 2 51.5937 65.2342 3.85193 
927 2 51.5937 62.9607 6.12535 
928 2 49.3202 65.2342 6.12535 
929 2 53.8671 62.9607 3.85193 
930 2 56.1405 65.2342 3.85193 
931 2 56.1405 62.9607 6.12535 
932 2 53.8671 65.2342 6.12535 
933 2 58.4139 62.9607 3.85193 
934 2 60.6873 65.2342 3.85193 
935 2 60.6873 62.9607 6.12535 
936 2 58.4139 65.2342 6.12535 
937 2 62.9607 62.9607 3.85193 
938 2 65.2342 65.2342 3.85193 
939 2 65.2342 62.9607 6.12535 
940 2 62.9607 65.2342 6.12535 
941 2 67.5076 62.9607 3.85193 
942 2 69.781 65.2342 3.85193 
943 2 69.781 62.9607 6.12535 
944 2 67.5076 65.2342 6.12535 
945 2 72.0544 62.9607 3.85193 
946 2 74.3278 65.2342 3.85193 
947 2 74.3278 62.9607 6.12535 
948 2 72.0544 65.2342 6.12535 
949 2 76.6012 62.9607 3.85193 
950 2 78.8746 65.2342 3.85193 
951 2 78.8746 62.9607 6.12535 
952 2 76.6012 65.2342 6.12535 
953 2 3.85193 67.5076 3.85193 
954 2 6.12535 69.781 3.85193 
955 2 6.12535 67.5076 6.12535 
956 2 3.85193 69.781 6.12535 
957 2 8.39877 67.5076 3.85193 
958 2 10.6722 69.781 3.85193 
959 2 10.6722 67.5076 6.12535 
960 2 8.39877 69.781 6.12535 
961 2 12.9456 67.5076 3.85193 
962 2 15.219 69.781 3.85193 
963 2 15.219 67.5076 6.12535 
964 2 12.9456 69.781 6.12535 
965 2 17.4924 67.5076 3.85193 
966 2 19.7658 69.781 3.85193 
967 2 19.7658 67.5076 6.12535 
968 2 17.4924 69.781 6.12535 
969 2 22.0393 67.5076 3.85193 
970 2 24.3127 69.781 3.85193 
971 2 24.3127 67.5076 6.12535 
972 2 22.0393 69.781 6.12535 