ITEM: TIMESTEP
59
ITEM: NUMBER OF ATOMS
19652
ITEM: BOX BOUNDS pp pp pp
1.1913060480789213e+01 7.3086939519210489e+01
1.1913060480789213e+01 7.3086939519210489e+01
1.1913060480789213e+01 7.3086939519210489e+01
ITEM: ATOMS id type xu yu zu 
1 2 11.9131 11.9131 11.9131 
2 2 13.7123 13.7123 11.9131 
3 2 13.7123 11.9131 13.7123 
4 2 11.9131 13.7123 13.7123 
5 2 15.5115 11.9131 11.9131 
6 2 17.3108 13.7123 11.9131 
7 2 17.3108 11.9131 13.7123 
8 2 15.5115 13.7123 13.7123 
9 2 19.11 11.9131 11.9131 
10 2 20.9092 13.7123 11.9131 
11 2 20.9092 11.9131 13.7123 
12 2 19.11 13.7123 13.7123 
13 2 22.7085 11.9131 11.9131 
14 2 24.5077 13.7123 11.9131 
15 2 24.5077 11.9131 13.7123 
16 2 22.7085 13.7123 13.7123 
17 2 26.3069 11.9131 11.9131 
18 2 28.1061 13.7123 11.9131 
19 2 28.1061 11.9131 13.7123 
20 2 26.3069 13.7123 13.7123 
21 2 29.9054 11.9131 11.9131 
22 2 31.7046 13.7123 11.9131 
23 2 31.7046 11.9131 13.7123 
24 2 29.9054 13.7123 13.7123 
25 2 33.5038 11.9131 11.9131 
26 2 35.3031 13.7123 11.9131 
27 2 35.3031 11.9131 13.7123 
28 2 33.5038 13.7123 13.7123 
29 2 37.1023 11.9131 11.9131 
30 2 38.9015 13.7123 11.9131 
31 2 38.9015 11.9131 13.7123 
32 2 37.1023 13.7123 13.7123 
33 2 40.7008 11.9131 11.9131 
34 2 42.5 13.7123 11.9131 
35 2 42.5 11.9131 13.7123 
36 2 40.7008 13.7123 13.7123 
37 2 44.2992 11.9131 11.9131 
38 2 46.0985 13.7123 11.9131 
39 2 46.0985 11.9131 13.7123 
40 2 44.2992 13.7123 13.7123 
41 2 47.8977 11.9131 11.9131 
42 2 49.6969 13.7123 11.9131 
43 2 49.6969 11.9131 13.7123 
44 2 47.8977 13.7123 13.7123 
45 2 51.4962 11.9131 11.9131 
46 2 53.2954 13.7123 11.9131 
47 2 53.2954 11.9131 13.7123 
48 2 51.4962 13.7123 13.7123 
49 2 55.0946 11.9131 11.9131 
50 2 56.8939 13.7123 11.9131 
51 2 56.8939 11.9131 13.7123 
52 2 55.0946 13.7123 13.7123 
53 2 58.6931 11.9131 11.9131 
54 2 60.4923 13.7123 11.9131 
55 2 60.4923 11.9131 13.7123 
56 2 58.6931 13.7123 13.7123 
57 2 62.2915 11.9131 11.9131 
58 2 64.0908 13.7123 11.9131 
59 2 64.0908 11.9131 13.7123 
60 2 62.2915 13.7123 13.7123 
61 2 65.89 11.9131 11.9131 
62 2 67.6892 13.7123 11.9131 
63 2 67.6892 11.9131 13.7123 
64 2 65.89 13.7123 13.7123 
65 2 69.4885 11.9131 11.9131 
66 2 71.2877 13.7123 11.9131 
67 2 71.2877 11.9131 13.7123 
68 2 69.4885 13.7123 13.7123 
69 2 11.9131 15.5115 11.9131 
70 2 13.7123 17.3108 11.9131 
71 2 13.7123 15.5115 13.7123 
72 2 11.9131 17.3108 13.7123 
73 2 15.5115 15.5115 11.9131 
74 2 17.3108 17.3108 11.9131 
75 2 17.3108 15.5115 13.7123 
76 2 15.5115 17.3108 13.7123 
77 2 19.11 15.5115 11.9131 
78 2 20.9092 17.3108 11.9131 
79 2 20.9092 15.5115 13.7123 
80 2 19.11 17.3108 13.7123 
81 2 22.7085 15.5115 11.9131 
82 2 24.5077 17.3108 11.9131 
83 2 24.5077 15.5115 13.7123 
84 2 22.7085 17.3108 13.7123 
85 2 26.3069 15.5115 11.9131 
86 2 28.1061 17.3108 11.9131 
87 2 28.1061 15.5115 13.7123 
88 2 26.3069 17.3108 13.7123 
89 2 29.9054 15.5115 11.9131 
90 2 31.7046 17.3108 11.9131 
91 2 31.7046 15.5115 13.7123 
92 2 29.9054 17.3108 13.7123 
93 2 33.5038 15.5115 11.9131 
94 2 35.3031 17.3108 11.9131 
95 2 35.3031 15.5115 13.7123 
96 2 33.5038 17.3108 13.7123 
97 2 37.1023 15.5115 11.9131 
98 2 38.9015 17.3108 11.9131 
99 2 38.9015 15.5115 13.7123 
100 2 37.1023 17.3108 13.7123 
101 2 40.7008 15.5115 11.9131 
102 2 42.5 17.3108 11.9131 
103 2 42.5 15.5115 13.7123 
104 2 40.7008 17.3108 13.7123 
105 2 44.2992 15.5115 11.9131 
106 2 46.0985 17.3108 11.9131 
107 2 46.0985 15.5115 13.7123 
108 2 44.2992 17.3108 13.7123 
109 2 47.8977 15.5115 11.9131 
110 2 49.6969 17.3108 11.9131 
111 2 49.6969 15.5115 13.7123 
112 2 47.8977 17.3108 13.7123 
113 2 51.4962 15.5115 11.9131 
114 2 53.2954 17.3108 11.9131 
115 2 53.2954 15.5115 13.7123 
116 2 51.4962 17.3108 13.7123 
117 2 55.0946 15.5115 11.9131 
118 2 56.8939 17.3108 11.9131 
119 2 56.8939 15.5115 13.7123 
120 2 55.0946 17.3108 13.7123 
121 2 58.6931 15.5115 11.9131 
122 2 60.4923 17.3108 11.9131 
123 2 60.4923 15.5115 13.7123 
124 2 58.6931 17.3108 13.7123 
125 2 62.2915 15.5115 11.9131 
126 2 64.0908 17.3108 11.9131 
127 2 64.0908 15.5115 13.7123 
128 2 62.2915 17.3108 13.7123 
129 2 65.89 15.5115 11.9131 
130 2 67.6892 17.3108 11.9131 
131 2 67.6892 15.5115 13.7123 
132 2 65.89 17.3108 13.7123 
133 2 69.4885 15.5115 11.9131 
134 2 71.2877 17.3108 11.9131 
135 2 71.2877 15.5115 13.7123 
136 2 69.4885 17.3108 13.7123 
137 2 11.9131 19.11 11.9131 
138 2 13.7123 20.9092 11.9131 
139 2 13.7123 19.11 13.7123 
140 2 11.9131 20.9092 13.7123 
141 2 15.5115 19.11 11.9131 
142 2 17.3108 20.9092 11.9131 
143 2 17.3108 19.11 13.7123 
144 2 15.5115 20.9092 13.7123 
145 2 19.11 19.11 11.9131 
146 2 20.9092 20.9092 11.9131 
147 2 20.9092 19.11 13.7123 
148 2 19.11 20.9092 13.7123 
149 2 22.7085 19.11 11.9131 
150 2 24.5077 20.9092 11.9131 
151 2 24.5077 19.11 13.7123 
152 2 22.7085 20.9092 13.7123 
153 2 26.3069 19.11 11.9131 
154 2 28.1061 20.9092 11.9131 
155 2 28.1061 19.11 13.7123 
156 2 26.3069 20.9092 13.7123 
157 2 29.9054 19.11 11.9131 
158 2 31.7046 20.9092 11.9131 
159 2 31.7046 19.11 13.7123 
160 2 29.9054 20.9092 13.7123 
161 2 33.5038 19.11 11.9131 
162 2 35.3031 20.9092 11.9131 
163 2 35.3031 19.11 13.7123 
164 2 33.5038 20.9092 13.7123 
165 2 37.1023 19.11 11.9131 
166 2 38.9015 20.9092 11.9131 
167 2 38.9015 19.11 13.7123 
168 2 37.1023 20.9092 13.7123 
169 2 40.7008 19.11 11.9131 
170 2 42.5 20.9092 11.9131 
171 2 42.5 19.11 13.7123 
172 2 40.7008 20.9092 13.7123 
173 2 44.2992 19.11 11.9131 
174 2 46.0985 20.9092 11.9131 
175 2 46.0985 19.11 13.7123 
176 2 44.2992 20.9092 13.7123 
177 2 47.8977 19.11 11.9131 
178 2 49.6969 20.9092 11.9131 
179 2 49.6969 19.11 13.7123 
180 2 47.8977 20.9092 13.7123 
181 2 51.4962 19.11 11.9131 
182 2 53.2954 20.9092 11.9131 
183 2 53.2954 19.11 13.7123 
184 2 51.4962 20.9092 13.7123 
185 2 55.0946 19.11 11.9131 
186 2 56.8939 20.9092 11.9131 
187 2 56.8939 19.11 13.7123 
188 2 55.0946 20.9092 13.7123 
189 2 58.6931 19.11 11.9131 
190 2 60.4923 20.9092 11.9131 
191 2 60.4923 19.11 13.7123 
192 2 58.6931 20.9092 13.7123 
193 2 62.2915 19.11 11.9131 
194 2 64.0908 20.9092 11.9131 
195 2 64.0908 19.11 13.7123 
196 2 62.2915 20.9092 13.7123 
197 2 65.89 19.11 11.9131 
198 2 67.6892 20.9092 11.9131 
199 2 67.6892 19.11 13.7123 
200 2 65.89 20.9092 13.7123 
201 2 69.4885 19.11 11.9131 
202 2 71.2877 20.9092 11.9131 
203 2 71.2877 19.11 13.7123 
204 2 69.4885 20.9092 13.7123 
205 2 11.9131 22.7085 11.9131 
206 2 13.7123 24.5077 11.9131 
207 2 13.7123 22.7085 13.7123 
208 2 11.9131 24.5077 13.7123 
209 2 15.5115 22.7085 11.9131 
210 2 17.3108 24.5077 11.9131 
211 2 17.3108 22.7085 13.7123 
212 2 15.5115 24.5077 13.7123 
213 2 19.11 22.7085 11.9131 
214 2 20.9092 24.5077 11.9131 
215 2 20.9092 22.7085 13.7123 
216 2 19.11 24.5077 13.7123 
217 2 22.7085 22.7085 11.9131 
218 2 24.5077 24.5077 11.9131 
219 2 24.5077 22.7085 13.7123 
220 2 22.7085 24.5077 13.7123 
221 2 26.3069 22.7085 11.9131 
222 2 28.1061 24.5077 11.9131 
223 2 28.1061 22.7085 13.7123 
224 2 26.3069 24.5077 13.7123 
225 2 29.9054 22.7085 11.9131 
226 2 31.7046 24.5077 11.9131 
227 2 31.7046 22.7085 13.7123 
228 2 29.9054 24.5077 13.7123 
229 2 33.5038 22.7085 11.9131 
230 2 35.3031 24.5077 11.9131 
231 2 35.3031 22.7085 13.7123 
232 2 33.5038 24.5077 13.7123 
233 2 37.1023 22.7085 11.9131 
234 2 38.9015 24.5077 11.9131 
235 2 38.9015 22.7085 13.7123 
236 2 37.1023 24.5077 13.7123 
237 2 40.7008 22.7085 11.9131 
238 2 42.5 24.5077 11.9131 
239 2 42.5 22.7085 13.7123 
240 2 40.7008 24.5077 13.7123 
241 2 44.2992 22.7085 11.9131 
242 2 46.0985 24.5077 11.9131 
243 2 46.0985 22.7085 13.7123 
244 2 44.2992 24.5077 13.7123 
245 2 47.8977 22.7085 11.9131 
246 2 49.6969 24.5077 11.9131 
247 2 49.6969 22.7085 13.7123 
248 2 47.8977 24.5077 13.7123 
249 2 51.4962 22.7085 11.9131 
250 2 53.2954 24.5077 11.9131 
251 2 53.2954 22.7085 13.7123 
252 2 51.4962 24.5077 13.7123 
253 2 55.0946 22.7085 11.9131 
254 2 56.8939 24.5077 11.9131 
255 2 56.8939 22.7085 13.7123 
256 2 55.0946 24.5077 13.7123 
257 2 58.6931 22.7085 11.9131 
258 2 60.4923 24.5077 11.9131 
259 2 60.4923 22.7085 13.7123 
260 2 58.6931 24.5077 13.7123 
261 2 62.2915 22.7085 11.9131 
262 2 64.0908 24.5077 11.9131 
263 2 64.0908 22.7085 13.7123 
264 2 62.2915 24.5077 13.7123 
265 2 65.89 22.7085 11.9131 
266 2 67.6892 24.5077 11.9131 
267 2 67.6892 22.7085 13.7123 
268 2 65.89 24.5077 13.7123 
269 2 69.4885 22.7085 11.9131 
270 2 71.2877 24.5077 11.9131 
271 2 71.2877 22.7085 13.7123 
272 2 69.4885 24.5077 13.7123 
273 2 11.9131 26.3069 11.9131 
274 2 13.7123 28.1061 11.9131 
275 2 13.7123 26.3069 13.7123 
276 2 11.9131 28.1061 13.7123 
277 2 15.5115 26.3069 11.9131 
278 2 17.3108 28.1061 11.9131 
279 2 17.3108 26.3069 13.7123 
280 2 15.5115 28.1061 13.7123 
281 2 19.11 26.3069 11.9131 
282 2 20.9092 28.1061 11.9131 
283 2 20.9092 26.3069 13.7123 
284 2 19.11 28.1061 13.7123 
285 2 22.7085 26.3069 11.9131 
286 2 24.5077 28.1061 11.9131 
287 2 24.5077 26.3069 13.7123 
288 2 22.7085 28.1061 13.7123 
289 2 26.3069 26.3069 11.9131 
290 2 28.1061 28.1061 11.9131 
291 2 28.1061 26.3069 13.7123 
292 2 26.3069 28.1061 13.7123 
293 2 29.9054 26.3069 11.9131 
294 2 31.7046 28.1061 11.9131 
295 2 31.7046 26.3069 13.7123 
296 2 29.9054 28.1061 13.7123 
297 2 33.5038 26.3069 11.9131 
298 2 35.3031 28.1061 11.9131 
299 2 35.3031 26.3069 13.7123 
300 2 33.5038 28.1061 13.7123 
301 2 37.1023 26.3069 11.9131 
302 2 38.9015 28.1061 11.9131 
303 2 38.9015 26.3069 13.7123 
304 2 37.1023 28.1061 13.7123 
305 2 40.7008 26.3069 11.9131 
306 2 42.5 28.1061 11.9131 
307 2 42.5 26.3069 13.7123 
308 2 40.7008 28.1061 13.7123 
309 2 44.2992 26.3069 11.9131 
310 2 46.0985 28.1061 11.9131 
311 2 46.0985 26.3069 13.7123 
312 2 44.2992 28.1061 13.7123 
313 2 47.8977 26.3069 11.9131 
314 2 49.6969 28.1061 11.9131 
315 2 49.6969 26.3069 13.7123 
316 2 47.8977 28.1061 13.7123 
317 2 51.4962 26.3069 11.9131 
318 2 53.2954 28.1061 11.9131 
319 2 53.2954 26.3069 13.7123 
320 2 51.4962 28.1061 13.7123 
321 2 55.0946 26.3069 11.9131 
322 2 56.8939 28.1061 11.9131 
323 2 56.8939 26.3069 13.7123 
324 2 55.0946 28.1061 13.7123 
325 2 58.6931 26.3069 11.9131 
326 2 60.4923 28.1061 11.9131 
327 2 60.4923 26.3069 13.7123 
328 2 58.6931 28.1061 13.7123 
329 2 62.2915 26.3069 11.9131 
330 2 64.0908 28.1061 11.9131 
331 2 64.0908 26.3069 13.7123 
332 2 62.2915 28.1061 13.7123 
333 2 65.89 26.3069 11.9131 
334 2 67.6892 28.1061 11.9131 
335 2 67.6892 26.3069 13.7123 
336 2 65.89 28.1061 13.7123 
337 2 69.4885 26.3069 11.9131 
338 2 71.2877 28.1061 11.9131 
339 2 71.2877 26.3069 13.7123 
340 2 69.4885 28.1061 13.7123 
341 2 11.9131 29.9054 11.9131 
342 2 13.7123 31.7046 11.9131 
343 2 13.7123 29.9054 13.7123 
344 2 11.9131 31.7046 13.7123 
345 2 15.5115 29.9054 11.9131 
346 2 17.3108 31.7046 11.9131 
347 2 17.3108 29.9054 13.7123 
348 2 15.5115 31.7046 13.7123 
349 2 19.11 29.9054 11.9131 
350 2 20.9092 31.7046 11.9131 
351 2 20.9092 29.9054 13.7123 
352 2 19.11 31.7046 13.7123 
353 2 22.7085 29.9054 11.9131 
354 2 24.5077 31.7046 11.9131 
355 2 24.5077 29.9054 13.7123 
356 2 22.7085 31.7046 13.7123 
357 2 26.3069 29.9054 11.9131 
358 2 28.1061 31.7046 11.9131 
359 2 28.1061 29.9054 13.7123 
360 2 26.3069 31.7046 13.7123 
361 2 29.9054 29.9054 11.9131 
362 2 31.7046 31.7046 11.9131 
363 2 31.7046 29.9054 13.7123 
364 2 29.9054 31.7046 13.7123 
365 2 33.5038 29.9054 11.9131 
366 2 35.3031 31.7046 11.9131 
367 2 35.3031 29.9054 13.7123 
368 2 33.5038 31.7046 13.7123 
369 2 37.1023 29.9054 11.9131 
370 2 38.9015 31.7046 11.9131 
371 2 38.9015 29.9054 13.7123 
372 2 37.1023 31.7046 13.7123 
373 2 40.7008 29.9054 11.9131 
374 2 42.5 31.7046 11.9131 
375 2 42.5 29.9054 13.7123 
376 2 40.7008 31.7046 13.7123 
377 2 44.2992 29.9054 11.9131 
378 2 46.0985 31.7046 11.9131 
379 2 46.0985 29.9054 13.7123 
380 2 44.2992 31.7046 13.7123 
381 2 47.8977 29.9054 11.9131 
382 2 49.6969 31.7046 11.9131 
383 2 49.6969 29.9054 13.7123 
384 2 47.8977 31.7046 13.7123 
385 2 51.4962 29.9054 11.9131 
386 2 53.2954 31.7046 11.9131 
387 2 53.2954 29.9054 13.7123 
388 2 51.4962 31.7046 13.7123 
389 2 55.0946 29.9054 11.9131 
390 2 56.8939 31.7046 11.9131 
391 2 56.8939 29.9054 13.7123 
392 2 55.0946 31.7046 13.7123 
393 2 58.6931 29.9054 11.9131 
394 2 60.4923 31.7046 11.9131 
395 2 60.4923 29.9054 13.7123 
396 2 58.6931 31.7046 13.7123 
397 2 62.2915 29.9054 11.9131 
398 2 64.0908 31.7046 11.9131 
399 2 64.0908 29.9054 13.7123 
400 2 62.2915 31.7046 13.7123 
401 2 65.89 29.9054 11.9131 
402 2 67.6892 31.7046 11.9131 
403 2 67.6892 29.9054 13.7123 
404 2 65.89 31.7046 13.7123 
405 2 69.4885 29.9054 11.9131 
406 2 71.2877 31.7046 11.9131 
407 2 71.2877 29.9054 13.7123 
408 2 69.4885 31.7046 13.7123 
409 2 11.9131 33.5038 11.9131 
410 2 13.7123 35.3031 11.9131 
411 2 13.7123 33.5038 13.7123 
412 2 11.9131 35.3031 13.7123 
413 2 15.5115 33.5038 11.9131 
414 2 17.3108 35.3031 11.9131 
415 2 17.3108 33.5038 13.7123 
416 2 15.5115 35.3031 13.7123 
417 2 19.11 33.5038 11.9131 
418 2 20.9092 35.3031 11.9131 
419 2 20.9092 33.5038 13.7123 
420 2 19.11 35.3031 13.7123 
421 2 22.7085 33.5038 11.9131 
422 2 24.5077 35.3031 11.9131 
423 2 24.5077 33.5038 13.7123 
424 2 22.7085 35.3031 13.7123 
425 2 26.3069 33.5038 11.9131 
426 2 28.1061 35.3031 11.9131 
427 2 28.1061 33.5038 13.7123 
428 2 26.3069 35.3031 13.7123 
429 2 29.9054 33.5038 11.9131 
430 2 31.7046 35.3031 11.9131 
431 2 31.7046 33.5038 13.7123 
432 2 29.9054 35.3031 13.7123 
433 2 33.5038 33.5038 11.9131 
434 2 35.3031 35.3031 11.9131 
435 2 35.3031 33.5038 13.7123 
436 2 33.5038 35.3031 13.7123 
437 2 37.1023 33.5038 11.9131 
438 2 38.9015 35.3031 11.9131 
439 2 38.9015 33.5038 13.7123 
440 2 37.1023 35.3031 13.7123 
441 2 40.7008 33.5038 11.9131 
442 2 42.5 35.3031 11.9131 
443 2 42.5 33.5038 13.7123 
444 2 40.7008 35.3031 13.7123 
445 2 44.2992 33.5038 11.9131 
446 2 46.0985 35.3031 11.9131 
447 2 46.0985 33.5038 13.7123 
448 2 44.2992 35.3031 13.7123 
449 2 47.8977 33.5038 11.9131 
450 2 49.6969 35.3031 11.9131 
451 2 49.6969 33.5038 13.7123 
452 2 47.8977 35.3031 13.7123 
453 2 51.4962 33.5038 11.9131 
454 2 53.2954 35.3031 11.9131 
455 2 53.2954 33.5038 13.7123 
456 2 51.4962 35.3031 13.7123 
457 2 55.0946 33.5038 11.9131 
458 2 56.8939 35.3031 11.9131 
459 2 56.8939 33.5038 13.7123 
460 2 55.0946 35.3031 13.7123 
461 2 58.6931 33.5038 11.9131 
462 2 60.4923 35.3031 11.9131 
463 2 60.4923 33.5038 13.7123 
464 2 58.6931 35.3031 13.7123 
465 2 62.2915 33.5038 11.9131 
466 2 64.0908 35.3031 11.9131 
467 2 64.0908 33.5038 13.7123 
468 2 62.2915 35.3031 13.7123 
469 2 65.89 33.5038 11.9131 
470 2 67.6892 35.3031 11.9131 
471 2 67.6892 33.5038 13.7123 
472 2 65.89 35.3031 13.7123 
473 2 69.4885 33.5038 11.9131 
474 2 71.2877 35.3031 11.9131 
475 2 71.2877 33.5038 13.7123 
476 2 69.4885 35.3031 13.7123 
477 2 11.9131 37.1023 11.9131 
478 2 13.7123 38.9015 11.9131 
479 2 13.7123 37.1023 13.7123 
480 2 11.9131 38.9015 13.7123 
481 2 15.5115 37.1023 11.9131 
482 2 17.3108 38.9015 11.9131 
483 2 17.3108 37.1023 13.7123 
484 2 15.5115 38.9015 13.7123 
485 2 19.11 37.1023 11.9131 
486 2 20.9092 38.9015 11.9131 
487 2 20.9092 37.1023 13.7123 
488 2 19.11 38.9015 13.7123 
489 2 22.7085 37.1023 11.9131 
490 2 24.5077 38.9015 11.9131 
491 2 24.5077 37.1023 13.7123 
492 2 22.7085 38.9015 13.7123 
493 2 26.3069 37.1023 11.9131 
494 2 28.1061 38.9015 11.9131 
495 2 28.1061 37.1023 13.7123 
496 2 26.3069 38.9015 13.7123 
497 2 29.9054 37.1023 11.9131 
498 2 31.7046 38.9015 11.9131 
499 2 31.7046 37.1023 13.7123 
500 2 29.9054 38.9015 13.7123 
501 2 33.5038 37.1023 11.9131 
502 2 35.3031 38.9015 11.9131 
503 2 35.3031 37.1023 13.7123 
504 2 33.5038 38.9015 13.7123 
505 2 37.1023 37.1023 11.9131 
506 2 38.9015 38.9015 11.9131 
507 2 38.9015 37.1023 13.7123 
508 2 37.1023 38.9015 13.7123 
509 2 40.7008 37.1023 11.9131 
510 2 42.5 38.9015 11.9131 
511 2 42.5 37.1023 13.7123 
512 2 40.7008 38.9015 13.7123 
513 2 44.2992 37.1023 11.9131 
514 2 46.0985 38.9015 11.9131 
515 2 46.0985 37.1023 13.7123 
516 2 44.2992 38.9015 13.7123 
517 2 47.8977 37.1023 11.9131 
518 2 49.6969 38.9015 11.9131 
519 2 49.6969 37.1023 13.7123 
520 2 47.8977 38.9015 13.7123 
521 2 51.4962 37.1023 11.9131 
522 2 53.2954 38.9015 11.9131 
523 2 53.2954 37.1023 13.7123 
524 2 51.4962 38.9015 13.7123 
525 2 55.0946 37.1023 11.9131 
526 2 56.8939 38.9015 11.9131 
527 2 56.8939 37.1023 13.7123 
528 2 55.0946 38.9015 13.7123 
529 2 58.6931 37.1023 11.9131 
530 2 60.4923 38.9015 11.9131 
531 2 60.4923 37.1023 13.7123 
532 2 58.6931 38.9015 13.7123 
533 2 62.2915 37.1023 11.9131 
534 2 64.0908 38.9015 11.9131 
535 2 64.0908 37.1023 13.7123 
536 2 62.2915 38.9015 13.7123 
537 2 65.89 37.1023 11.9131 
538 2 67.6892 38.9015 11.9131 
539 2 67.6892 37.1023 13.7123 
540 2 65.89 38.9015 13.7123 
541 2 69.4885 37.1023 11.9131 
542 2 71.2877 38.9015 11.9131 
543 2 71.2877 37.1023 13.7123 
544 2 69.4885 38.9015 13.7123 
545 2 11.9131 40.7008 11.9131 
546 2 13.7123 42.5 11.9131 
547 2 13.7123 40.7008 13.7123 
548 2 11.9131 42.5 13.7123 
549 2 15.5115 40.7008 11.9131 
550 2 17.3108 42.5 11.9131 
551 2 17.3108 40.7008 13.7123 
552 2 15.5115 42.5 13.7123 
553 2 19.11 40.7008 11.9131 
554 2 20.9092 42.5 11.9131 
555 2 20.9092 40.7008 13.7123 
556 2 19.11 42.5 13.7123 
557 2 22.7085 40.7008 11.9131 
558 2 24.5077 42.5 11.9131 
559 2 24.5077 40.7008 13.7123 
560 2 22.7085 42.5 13.7123 
561 2 26.3069 40.7008 11.9131 
562 2 28.1061 42.5 11.9131 
563 2 28.1061 40.7008 13.7123 
564 2 26.3069 42.5 13.7123 
565 2 29.9054 40.7008 11.9131 
566 2 31.7046 42.5 11.9131 
567 2 31.7046 40.7008 13.7123 
568 2 29.9054 42.5 13.7123 
569 2 33.5038 40.7008 11.9131 
570 2 35.3031 42.5 11.9131 
571 2 35.3031 40.7008 13.7123 
572 2 33.5038 42.5 13.7123 
573 2 37.1023 40.7008 11.9131 
574 2 38.9015 42.5 11.9131 
575 2 38.9015 40.7008 13.7123 
576 2 37.1023 42.5 13.7123 
577 2 40.7008 40.7008 11.9131 
578 2 42.5 42.5 11.9131 
579 2 42.5 40.7008 13.7123 
580 2 40.7008 42.5 13.7123 
581 2 44.2992 40.7008 11.9131 
582 2 46.0985 42.5 11.9131 
583 2 46.0985 40.7008 13.7123 
584 2 44.2992 42.5 13.7123 
585 2 47.8977 40.7008 11.9131 
586 2 49.6969 42.5 11.9131 
587 2 49.6969 40.7008 13.7123 
588 2 47.8977 42.5 13.7123 
589 2 51.4962 40.7008 11.9131 
590 2 53.2954 42.5 11.9131 
591 2 53.2954 40.7008 13.7123 
592 2 51.4962 42.5 13.7123 
593 2 55.0946 40.7008 11.9131 
594 2 56.8939 42.5 11.9131 
595 2 56.8939 40.7008 13.7123 
596 2 55.0946 42.5 13.7123 
597 2 58.6931 40.7008 11.9131 
598 2 60.4923 42.5 11.9131 
599 2 60.4923 40.7008 13.7123 
600 2 58.6931 42.5 13.7123 
601 2 62.2915 40.7008 11.9131 
602 2 64.0908 42.5 11.9131 
603 2 64.0908 40.7008 13.7123 
604 2 62.2915 42.5 13.7123 
605 2 65.89 40.7008 11.9131 
606 2 67.6892 42.5 11.9131 
607 2 67.6892 40.7008 13.7123 
608 2 65.89 42.5 13.7123 
609 2 69.4885 40.7008 11.9131 
610 2 71.2877 42.5 11.9131 
611 2 71.2877 40.7008 13.7123 
612 2 69.4885 42.5 13.7123 
613 2 11.9131 44.2992 11.9131 
614 2 13.7123 46.0985 11.9131 
615 2 13.7123 44.2992 13.7123 
616 2 11.9131 46.0985 13.7123 
617 2 15.5115 44.2992 11.9131 
618 2 17.3108 46.0985 11.9131 
619 2 17.3108 44.2992 13.7123 
620 2 15.5115 46.0985 13.7123 
621 2 19.11 44.2992 11.9131 
622 2 20.9092 46.0985 11.9131 
623 2 20.9092 44.2992 13.7123 
624 2 19.11 46.0985 13.7123 
625 2 22.7085 44.2992 11.9131 
626 2 24.5077 46.0985 11.9131 
627 2 24.5077 44.2992 13.7123 
628 2 22.7085 46.0985 13.7123 
629 2 26.3069 44.2992 11.9131 
630 2 28.1061 46.0985 11.9131 
631 2 28.1061 44.2992 13.7123 
632 2 26.3069 46.0985 13.7123 
633 2 29.9054 44.2992 11.9131 
634 2 31.7046 46.0985 11.9131 
635 2 31.7046 44.2992 13.7123 
636 2 29.9054 46.0985 13.7123 
637 2 33.5038 44.2992 11.9131 
638 2 35.3031 46.0985 11.9131 
639 2 35.3031 44.2992 13.7123 
640 2 33.5038 46.0985 13.7123 
641 2 37.1023 44.2992 11.9131 
642 2 38.9015 46.0985 11.9131 
643 2 38.9015 44.2992 13.7123 
644 2 37.1023 46.0985 13.7123 
645 2 40.7008 44.2992 11.9131 
646 2 42.5 46.0985 11.9131 
647 2 42.5 44.2992 13.7123 
648 2 40.7008 46.0985 13.7123 
649 2 44.2992 44.2992 11.9131 
650 2 46.0985 46.0985 11.9131 
651 2 46.0985 44.2992 13.7123 
652 2 44.2992 46.0985 13.7123 
653 2 47.8977 44.2992 11.9131 
654 2 49.6969 46.0985 11.9131 
655 2 49.6969 44.2992 13.7123 
656 2 47.8977 46.0985 13.7123 
657 2 51.4962 44.2992 11.9131 
658 2 53.2954 46.0985 11.9131 
659 2 53.2954 44.2992 13.7123 
660 2 51.4962 46.0985 13.7123 
661 2 55.0946 44.2992 11.9131 
662 2 56.8939 46.0985 11.9131 
663 2 56.8939 44.2992 13.7123 
664 2 55.0946 46.0985 13.7123 
665 2 58.6931 44.2992 11.9131 
666 2 60.4923 46.0985 11.9131 
667 2 60.4923 44.2992 13.7123 
668 2 58.6931 46.0985 13.7123 
669 2 62.2915 44.2992 11.9131 
670 2 64.0908 46.0985 11.9131 
671 2 64.0908 44.2992 13.7123 
672 2 62.2915 46.0985 13.7123 
673 2 65.89 44.2992 11.9131 
674 2 67.6892 46.0985 11.9131 
675 2 67.6892 44.2992 13.7123 
676 2 65.89 46.0985 13.7123 
677 2 69.4885 44.2992 11.9131 
678 2 71.2877 46.0985 11.9131 
679 2 71.2877 44.2992 13.7123 
680 2 69.4885 46.0985 13.7123 
681 2 11.9131 47.8977 11.9131 
682 2 13.7123 49.6969 11.9131 
683 2 13.7123 47.8977 13.7123 
684 2 11.9131 49.6969 13.7123 
685 2 15.5115 47.8977 11.9131 
686 2 17.3108 49.6969 11.9131 
687 2 17.3108 47.8977 13.7123 
688 2 15.5115 49.6969 13.7123 
689 2 19.11 47.8977 11.9131 
690 2 20.9092 49.6969 11.9131 
691 2 20.9092 47.8977 13.7123 
692 2 19.11 49.6969 13.7123 
693 2 22.7085 47.8977 11.9131 
694 2 24.5077 49.6969 11.9131 
695 2 24.5077 47.8977 13.7123 
696 2 22.7085 49.6969 13.7123 
697 2 26.3069 47.8977 11.9131 
698 2 28.1061 49.6969 11.9131 
699 2 28.1061 47.8977 13.7123 
700 2 26.3069 49.6969 13.7123 
701 2 29.9054 47.8977 11.9131 
702 2 31.7046 49.6969 11.9131 
703 2 31.7046 47.8977 13.7123 
704 2 29.9054 49.6969 13.7123 
705 2 33.5038 47.8977 11.9131 
706 2 35.3031 49.6969 11.9131 
707 2 35.3031 47.8977 13.7123 
708 2 33.5038 49.6969 13.7123 
709 2 37.1023 47.8977 11.9131 
710 2 38.9015 49.6969 11.9131 
711 2 38.9015 47.8977 13.7123 
712 2 37.1023 49.6969 13.7123 
713 2 40.7008 47.8977 11.9131 
714 2 42.5 49.6969 11.9131 
715 2 42.5 47.8977 13.7123 
716 2 40.7008 49.6969 13.7123 
717 2 44.2992 47.8977 11.9131 
718 2 46.0985 49.6969 11.9131 
719 2 46.0985 47.8977 13.7123 
720 2 44.2992 49.6969 13.7123 
721 2 47.8977 47.8977 11.9131 
722 2 49.6969 49.6969 11.9131 
723 2 49.6969 47.8977 13.7123 
724 2 47.8977 49.6969 13.7123 
725 2 51.4962 47.8977 11.9131 
726 2 53.2954 49.6969 11.9131 
727 2 53.2954 47.8977 13.7123 
728 2 51.4962 49.6969 13.7123 
729 2 55.0946 47.8977 11.9131 
730 2 56.8939 49.6969 11.9131 
731 2 56.8939 47.8977 13.7123 
732 2 55.0946 49.6969 13.7123 
733 2 58.6931 47.8977 11.9131 
734 2 60.4923 49.6969 11.9131 
735 2 60.4923 47.8977 13.7123 
736 2 58.6931 49.6969 13.7123 
737 2 62.2915 47.8977 11.9131 
738 2 64.0908 49.6969 11.9131 
739 2 64.0908 47.8977 13.7123 
740 2 62.2915 49.6969 13.7123 
741 2 65.89 47.8977 11.9131 
742 2 67.6892 49.6969 11.9131 
743 2 67.6892 47.8977 13.7123 
744 2 65.89 49.6969 13.7123 
745 2 69.4885 47.8977 11.9131 
746 2 71.2877 49.6969 11.9131 
747 2 71.2877 47.8977 13.7123 
748 2 69.4885 49.6969 13.7123 
749 2 11.9131 51.4962 11.9131 
750 2 13.7123 53.2954 11.9131 
751 2 13.7123 51.4962 13.7123 
752 2 11.9131 53.2954 13.7123 
753 2 15.5115 51.4962 11.9131 
754 2 17.3108 53.2954 11.9131 
755 2 17.3108 51.4962 13.7123 
756 2 15.5115 53.2954 13.7123 
757 2 19.11 51.4962 11.9131 
758 2 20.9092 53.2954 11.9131 
759 2 20.9092 51.4962 13.7123 
760 2 19.11 53.2954 13.7123 
761 2 22.7085 51.4962 11.9131 
762 2 24.5077 53.2954 11.9131 
763 2 24.5077 51.4962 13.7123 
764 2 22.7085 53.2954 13.7123 
765 2 26.3069 51.4962 11.9131 
766 2 28.1061 53.2954 11.9131 
767 2 28.1061 51.4962 13.7123 
768 2 26.3069 53.2954 13.7123 
769 2 29.9054 51.4962 11.9131 
770 2 31.7046 53.2954 11.9131 
771 2 31.7046 51.4962 13.7123 
772 2 29.9054 53.2954 13.7123 
773 2 33.5038 51.4962 11.9131 
774 2 35.3031 53.2954 11.9131 
775 2 35.3031 51.4962 13.7123 
776 2 33.5038 53.2954 13.7123 
777 2 37.1023 51.4962 11.9131 
778 2 38.9015 53.2954 11.9131 
779 2 38.9015 51.4962 13.7123 
780 2 37.1023 53.2954 13.7123 
781 2 40.7008 51.4962 11.9131 
782 2 42.5 53.2954 11.9131 
783 2 42.5 51.4962 13.7123 
784 2 40.7008 53.2954 13.7123 
785 2 44.2992 51.4962 11.9131 
786 2 46.0985 53.2954 11.9131 
787 2 46.0985 51.4962 13.7123 
788 2 44.2992 53.2954 13.7123 
789 2 47.8977 51.4962 11.9131 
790 2 49.6969 53.2954 11.9131 
791 2 49.6969 51.4962 13.7123 
792 2 47.8977 53.2954 13.7123 
793 2 51.4962 51.4962 11.9131 
794 2 53.2954 53.2954 11.9131 
795 2 53.2954 51.4962 13.7123 
796 2 51.4962 53.2954 13.7123 
797 2 55.0946 51.4962 11.9131 
798 2 56.8939 53.2954 11.9131 
799 2 56.8939 51.4962 13.7123 
800 2 55.0946 53.2954 13.7123 
801 2 58.6931 51.4962 11.9131 
802 2 60.4923 53.2954 11.9131 
803 2 60.4923 51.4962 13.7123 
804 2 58.6931 53.2954 13.7123 
805 2 62.2915 51.4962 11.9131 
806 2 64.0908 53.2954 11.9131 
807 2 64.0908 51.4962 13.7123 
808 2 62.2915 53.2954 13.7123 
809 2 65.89 51.4962 11.9131 
810 2 67.6892 53.2954 11.9131 
811 2 67.6892 51.4962 13.7123 
812 2 65.89 53.2954 13.7123 
813 2 69.4885 51.4962 11.9131 
814 2 71.2877 53.2954 11.9131 
815 2 71.2877 51.4962 13.7123 
816 2 69.4885 53.2954 13.7123 
817 2 11.9131 55.0946 11.9131 
818 2 13.7123 56.8939 11.9131 
819 2 13.7123 55.0946 13.7123 
820 2 11.9131 56.8939 13.7123 
821 2 15.5115 55.0946 11.9131 
822 2 17.3108 56.8939 11.9131 
823 2 17.3108 55.0946 13.7123 
824 2 15.5115 56.8939 13.7123 
825 2 19.11 55.0946 11.9131 
826 2 20.9092 56.8939 11.9131 
827 2 20.9092 55.0946 13.7123 
828 2 19.11 56.8939 13.7123 
829 2 22.7085 55.0946 11.9131 
830 2 24.5077 56.8939 11.9131 
831 2 24.5077 55.0946 13.7123 
832 2 22.7085 56.8939 13.7123 
833 2 26.3069 55.0946 11.9131 
834 2 28.1061 56.8939 11.9131 
835 2 28.1061 55.0946 13.7123 
836 2 26.3069 56.8939 13.7123 
837 2 29.9054 55.0946 11.9131 
838 2 31.7046 56.8939 11.9131 
839 2 31.7046 55.0946 13.7123 
840 2 29.9054 56.8939 13.7123 
841 2 33.5038 55.0946 11.9131 
842 2 35.3031 56.8939 11.9131 
843 2 35.3031 55.0946 13.7123 
844 2 33.5038 56.8939 13.7123 
845 2 37.1023 55.0946 11.9131 
846 2 38.9015 56.8939 11.9131 
847 2 38.9015 55.0946 13.7123 
848 2 37.1023 56.8939 13.7123 
849 2 40.7008 55.0946 11.9131 
850 2 42.5 56.8939 11.9131 
851 2 42.5 55.0946 13.7123 
852 2 40.7008 56.8939 13.7123 
853 2 44.2992 55.0946 11.9131 
854 2 46.0985 56.8939 11.9131 
855 2 46.0985 55.0946 13.7123 
856 2 44.2992 56.8939 13.7123 
857 2 47.8977 55.0946 11.9131 
858 2 49.6969 56.8939 11.9131 
859 2 49.6969 55.0946 13.7123 
860 2 47.8977 56.8939 13.7123 
861 2 51.4962 55.0946 11.9131 
862 2 53.2954 56.8939 11.9131 
863 2 53.2954 55.0946 13.7123 
864 2 51.4962 56.8939 13.7123 
865 2 55.0946 55.0946 11.9131 
866 2 56.8939 56.8939 11.9131 
867 2 56.8939 55.0946 13.7123 
868 2 55.0946 56.8939 13.7123 
869 2 58.6931 55.0946 11.9131 
870 2 60.4923 56.8939 11.9131 
871 2 60.4923 55.0946 13.7123 
872 2 58.6931 56.8939 13.7123 
873 2 62.2915 55.0946 11.9131 
874 2 64.0908 56.8939 11.9131 
875 2 64.0908 55.0946 13.7123 
876 2 62.2915 56.8939 13.7123 
877 2 65.89 55.0946 11.9131 
878 2 67.6892 56.8939 11.9131 
879 2 67.6892 55.0946 13.7123 
880 2 65.89 56.8939 13.7123 
881 2 69.4885 55.0946 11.9131 
882 2 71.2877 56.8939 11.9131 
883 2 71.2877 55.0946 13.7123 
884 2 69.4885 56.8939 13.7123 
885 2 11.9131 58.6931 11.9131 
886 2 13.7123 60.4923 11.9131 
887 2 13.7123 58.6931 13.7123 
888 2 11.9131 60.4923 13.7123 
889 2 15.5115 58.6931 11.9131 
890 2 17.3108 60.4923 11.9131 
891 2 17.3108 58.6931 13.7123 
892 2 15.5115 60.4923 13.7123 
893 2 19.11 58.6931 11.9131 
894 2 20.9092 60.4923 11.9131 
895 2 20.9092 58.6931 13.7123 
896 2 19.11 60.4923 13.7123 
897 2 22.7085 58.6931 11.9131 
898 2 24.5077 60.4923 11.9131 
899 2 24.5077 58.6931 13.7123 
900 2 22.7085 60.4923 13.7123 
901 2 26.3069 58.6931 11.9131 
902 2 28.1061 60.4923 11.9131 
903 2 28.1061 58.6931 13.7123 
904 2 26.3069 60.4923 13.7123 
905 2 29.9054 58.6931 11.9131 
906 2 31.7046 60.4923 11.9131 
907 2 31.7046 58.6931 13.7123 
908 2 29.9054 60.4923 13.7123 
909 2 33.5038 58.6931 11.9131 
910 2 35.3031 60.4923 11.9131 
911 2 35.3031 58.6931 13.7123 
912 2 33.5038 60.4923 13.7123 
913 2 37.1023 58.6931 11.9131 
914 2 38.9015 60.4923 11.9131 
915 2 38.9015 58.6931 13.7123 
916 2 37.1023 60.4923 13.7123 
917 2 40.7008 58.6931 11.9131 
918 2 42.5 60.4923 11.9131 
919 2 42.5 58.6931 13.7123 
920 2 40.7008 60.4923 13.7123 
921 2 44.2992 58.6931 11.9131 
922 2 46.0985 60.4923 11.9131 
923 2 46.0985 58.6931 13.7123 
924 2 44.2992 60.4923 13.7123 
925 2 47.8977 58.6931 11.9131 
926 2 49.6969 60.4923 11.9131 
927 2 49.6969 58.6931 13.7123 
928 2 47.8977 60.4923 13.7123 
929 2 51.4962 58.6931 11.9131 
930 2 53.2954 60.4923 11.9131 
931 2 53.2954 58.6931 13.7123 
932 2 51.4962 60.4923 13.7123 
933 2 55.0946 58.6931 11.9131 
934 2 56.8939 60.4923 11.9131 
935 2 56.8939 58.6931 13.7123 
936 2 55.0946 60.4923 13.7123 
937 2 58.6931 58.6931 11.9131 
938 2 60.4923 60.4923 11.9131 
939 2 60.4923 58.6931 13.7123 
940 2 58.6931 60.4923 13.7123 
941 2 62.2915 58.6931 11.9131 
942 2 64.0908 60.4923 11.9131 
943 2 64.0908 58.6931 13.7123 
944 2 62.2915 60.4923 13.7123 
945 2 65.89 58.6931 11.9131 
946 2 67.6892 60.4923 11.9131 
947 2 67.6892 58.6931 13.7123 
948 2 65.89 60.4923 13.7123 
949 2 69.4885 58.6931 11.9131 
950 2 71.2877 60.4923 11.9131 
951 2 71.2877 58.6931 13.7123 
952 2 69.4885 60.4923 13.7123 
953 2 11.9131 62.2915 11.9131 
954 2 13.7123 64.0908 11.9131 
955 2 13.7123 62.2915 13.7123 
956 2 11.9131 64.0908 13.7123 
957 2 15.5115 62.2915 11.9131 
958 2 17.3108 64.0908 11.9131 
959 2 17.3108 62.2915 13.7123 
960 2 15.5115 64.0908 13.7123 
961 2 19.11 62.2915 11.9131 
962 2 20.9092 64.0908 11.9131 
963 2 20.9092 62.2915 13.7123 
964 2 19.11 64.0908 13.7123 
965 2 22.7085 62.2915 11.9131 
966 2 24.5077 64.0908 11.9131 
967 2 24.5077 62.2915 13.7123 
968 2 22.7085 64.0908 13.7123 
969 2 26.3069 62.2915 11.9131 
970 2 28.1061 64.0908 11.9131 
971 2 28.1061 62.2915 13.7123 
972 2 26.3069 64.0908 13.7123 
973 2 29.9054 62.2915 11.9131 
974 2 31.7046 64.0908 11.9131 
975 2 31.7046 62.2915 13.7123 