ITEM: TIMESTEP
4
ITEM: NUMBER OF ATOMS
19652
ITEM: BOX BOUNDS pp pp pp
3.0862708615203144e-01 8.4691372913847971e+01
5.3455779380725532e-01 1.4668976084954733e+02
5.0398592124964081e-01 1.3830043283646376e+02
ITEM: ATOMS id type xu yu zu 
1 1 0.308627 0.534558 0.503986 
2 1 2.79047 4.83324 0.503986 
3 1 2.79047 7.69903 4.55682 
4 1 0.308627 3.40035 4.55682 
5 1 5.27232 0.534558 0.503986 
6 1 7.75416 4.83324 0.503986 
7 1 7.75416 7.69903 4.55682 
8 1 5.27232 3.40035 4.55682 
9 1 10.236 0.534558 0.503986 
10 1 12.7179 4.83324 0.503986 
11 1 12.7179 7.69903 4.55682 
12 1 10.236 3.40035 4.55682 
13 1 15.1997 0.534558 0.503986 
14 1 17.6815 4.83324 0.503986 
15 1 17.6815 7.69903 4.55682 
16 1 15.1997 3.40035 4.55682 
17 1 20.1634 0.534558 0.503986 
18 1 22.6452 4.83324 0.503986 
19 1 22.6452 7.69903 4.55682 
20 1 20.1634 3.40035 4.55682 
21 1 25.1271 0.534558 0.503986 
22 1 27.6089 4.83324 0.503986 
23 1 27.6089 7.69903 4.55682 
24 1 25.1271 3.40035 4.55682 
25 1 30.0908 0.534558 0.503986 
26 1 32.5726 4.83324 0.503986 
27 1 32.5726 7.69903 4.55682 
28 1 30.0908 3.40035 4.55682 
29 1 35.0545 0.534558 0.503986 
30 1 37.5363 4.83324 0.503986 
31 1 37.5363 7.69903 4.55682 
32 1 35.0545 3.40035 4.55682 
33 1 40.0182 0.534558 0.503986 
34 1 42.5 4.83324 0.503986 
35 1 42.5 7.69903 4.55682 
36 1 40.0182 3.40035 4.55682 
37 1 44.9818 0.534558 0.503986 
38 1 47.4637 4.83324 0.503986 
39 1 47.4637 7.69903 4.55682 
40 1 44.9818 3.40035 4.55682 
41 1 49.9455 0.534558 0.503986 
42 1 52.4274 4.83324 0.503986 
43 1 52.4274 7.69903 4.55682 
44 1 49.9455 3.40035 4.55682 
45 1 54.9092 0.534558 0.503986 
46 1 57.3911 4.83324 0.503986 
47 1 57.3911 7.69903 4.55682 
48 1 54.9092 3.40035 4.55682 
49 1 59.8729 0.534558 0.503986 
50 1 62.3548 4.83324 0.503986 
51 1 62.3548 7.69903 4.55682 
52 1 59.8729 3.40035 4.55682 
53 1 64.8366 0.534558 0.503986 
54 1 67.3185 4.83324 0.503986 
55 1 67.3185 7.69903 4.55682 
56 1 64.8366 3.40035 4.55682 
57 1 69.8003 0.534558 0.503986 
58 1 72.2821 4.83324 0.503986 
59 1 72.2821 7.69903 4.55682 
60 1 69.8003 3.40035 4.55682 
61 1 74.764 0.534558 0.503986 
62 1 77.2458 4.83324 0.503986 
63 1 77.2458 7.69903 4.55682 
64 1 74.764 3.40035 4.55682 
65 1 79.7277 0.534558 0.503986 
66 1 82.2095 4.83324 0.503986 
67 1 82.2095 7.69903 4.55682 
68 1 79.7277 3.40035 4.55682 
69 1 0.308627 9.13192 0.503986 
70 1 2.79047 13.4306 0.503986 
71 1 2.79047 16.2964 4.55682 
72 1 0.308627 11.9977 4.55682 
73 1 5.27232 9.13192 0.503986 
74 1 7.75416 13.4306 0.503986 
75 1 7.75416 16.2964 4.55682 
76 1 5.27232 11.9977 4.55682 
77 1 10.236 9.13192 0.503986 
78 1 12.7179 13.4306 0.503986 
79 1 12.7179 16.2964 4.55682 
80 1 10.236 11.9977 4.55682 
81 1 15.1997 9.13192 0.503986 
82 1 17.6815 13.4306 0.503986 
83 1 17.6815 16.2964 4.55682 
84 1 15.1997 11.9977 4.55682 
85 1 20.1634 9.13192 0.503986 
86 1 22.6452 13.4306 0.503986 
87 1 22.6452 16.2964 4.55682 
88 1 20.1634 11.9977 4.55682 
89 1 25.1271 9.13192 0.503986 
90 1 27.6089 13.4306 0.503986 
91 1 27.6089 16.2964 4.55682 
92 1 25.1271 11.9977 4.55682 
93 1 30.0908 9.13192 0.503986 
94 1 32.5726 13.4306 0.503986 
95 1 32.5726 16.2964 4.55682 
96 1 30.0908 11.9977 4.55682 
97 1 35.0545 9.13192 0.503986 
98 1 37.5363 13.4306 0.503986 
99 1 37.5363 16.2964 4.55682 
100 1 35.0545 11.9977 4.55682 
101 1 40.0182 9.13192 0.503986 
102 1 42.5 13.4306 0.503986 
103 1 42.5 16.2964 4.55682 
104 1 40.0182 11.9977 4.55682 
105 1 44.9818 9.13192 0.503986 
106 1 47.4637 13.4306 0.503986 
107 1 47.4637 16.2964 4.55682 
108 1 44.9818 11.9977 4.55682 
109 1 49.9455 9.13192 0.503986 
110 1 52.4274 13.4306 0.503986 
111 1 52.4274 16.2964 4.55682 
112 1 49.9455 11.9977 4.55682 
113 1 54.9092 9.13192 0.503986 
114 1 57.3911 13.4306 0.503986 
115 1 57.3911 16.2964 4.55682 
116 1 54.9092 11.9977 4.55682 
117 1 59.8729 9.13192 0.503986 
118 1 62.3548 13.4306 0.503986 
119 1 62.3548 16.2964 4.55682 
120 1 59.8729 11.9977 4.55682 
121 1 64.8366 9.13192 0.503986 
122 1 67.3185 13.4306 0.503986 
123 1 67.3185 16.2964 4.55682 
124 1 64.8366 11.9977 4.55682 
125 1 69.8003 9.13192 0.503986 
126 1 72.2821 13.4306 0.503986 
127 1 72.2821 16.2964 4.55682 
128 1 69.8003 11.9977 4.55682 
129 1 74.764 9.13192 0.503986 
130 1 77.2458 13.4306 0.503986 
131 1 77.2458 16.2964 4.55682 
132 1 74.764 11.9977 4.55682 
133 1 79.7277 9.13192 0.503986 
134 1 82.2095 13.4306 0.503986 
135 1 82.2095 16.2964 4.55682 
136 1 79.7277 11.9977 4.55682 
137 1 0.308627 17.7293 0.503986 
138 1 2.79047 22.028 0.503986 
139 1 2.79047 24.8938 4.55682 
140 1 0.308627 20.5951 4.55682 
141 1 5.27232 17.7293 0.503986 
142 1 7.75416 22.028 0.503986 
143 1 7.75416 24.8938 4.55682 
144 1 5.27232 20.5951 4.55682 
145 1 10.236 17.7293 0.503986 
146 1 12.7179 22.028 0.503986 
147 1 12.7179 24.8938 4.55682 
148 1 10.236 20.5951 4.55682 
149 1 15.1997 17.7293 0.503986 
150 1 17.6815 22.028 0.503986 
151 1 17.6815 24.8938 4.55682 
152 1 15.1997 20.5951 4.55682 
153 1 20.1634 17.7293 0.503986 
154 1 22.6452 22.028 0.503986 
155 1 22.6452 24.8938 4.55682 
156 1 20.1634 20.5951 4.55682 
157 1 25.1271 17.7293 0.503986 
158 1 27.6089 22.028 0.503986 
159 1 27.6089 24.8938 4.55682 
160 1 25.1271 20.5951 4.55682 
161 1 30.0908 17.7293 0.503986 
162 1 32.5726 22.028 0.503986 
163 1 32.5726 24.8938 4.55682 
164 1 30.0908 20.5951 4.55682 
165 1 35.0545 17.7293 0.503986 
166 1 37.5363 22.028 0.503986 
167 1 37.5363 24.8938 4.55682 
168 1 35.0545 20.5951 4.55682 
169 1 40.0182 17.7293 0.503986 
170 1 42.5 22.028 0.503986 
171 1 42.5 24.8938 4.55682 
172 1 40.0182 20.5951 4.55682 
173 1 44.9818 17.7293 0.503986 
174 1 47.4637 22.028 0.503986 
175 1 47.4637 24.8938 4.55682 
176 1 44.9818 20.5951 4.55682 
177 1 49.9455 17.7293 0.503986 
178 1 52.4274 22.028 0.503986 
179 1 52.4274 24.8938 4.55682 
180 1 49.9455 20.5951 4.55682 
181 1 54.9092 17.7293 0.503986 
182 1 57.3911 22.028 0.503986 
183 1 57.3911 24.8938 4.55682 
184 1 54.9092 20.5951 4.55682 
185 1 59.8729 17.7293 0.503986 
186 1 62.3548 22.028 0.503986 
187 1 62.3548 24.8938 4.55682 
188 1 59.8729 20.5951 4.55682 
189 1 64.8366 17.7293 0.503986 
190 1 67.3185 22.028 0.503986 
191 1 67.3185 24.8938 4.55682 
192 1 64.8366 20.5951 4.55682 
193 1 69.8003 17.7293 0.503986 
194 1 72.2821 22.028 0.503986 
195 1 72.2821 24.8938 4.55682 
196 1 69.8003 20.5951 4.55682 
197 1 74.764 17.7293 0.503986 
198 1 77.2458 22.028 0.503986 
199 1 77.2458 24.8938 4.55682 
200 1 74.764 20.5951 4.55682 
201 1 79.7277 17.7293 0.503986 
202 1 82.2095 22.028 0.503986 
203 1 82.2095 24.8938 4.55682 
204 1 79.7277 20.5951 4.55682 
205 1 0.308627 26.3267 0.503986 
206 1 2.79047 30.6253 0.503986 
207 1 2.79047 33.4911 4.55682 
208 1 0.308627 29.1924 4.55682 
209 1 5.27232 26.3267 0.503986 
210 1 7.75416 30.6253 0.503986 
211 1 7.75416 33.4911 4.55682 
212 1 5.27232 29.1924 4.55682 
213 1 10.236 26.3267 0.503986 
214 1 12.7179 30.6253 0.503986 
215 1 12.7179 33.4911 4.55682 
216 1 10.236 29.1924 4.55682 
217 1 15.1997 26.3267 0.503986 
218 1 17.6815 30.6253 0.503986 
219 1 17.6815 33.4911 4.55682 
220 1 15.1997 29.1924 4.55682 
221 1 20.1634 26.3267 0.503986 
222 1 22.6452 30.6253 0.503986 
223 1 22.6452 33.4911 4.55682 
224 1 20.1634 29.1924 4.55682 
225 1 25.1271 26.3267 0.503986 
226 1 27.6089 30.6253 0.503986 
227 1 27.6089 33.4911 4.55682 
228 1 25.1271 29.1924 4.55682 
229 1 30.0908 26.3267 0.503986 
230 1 32.5726 30.6253 0.503986 
231 1 32.5726 33.4911 4.55682 
232 1 30.0908 29.1924 4.55682 
233 1 35.0545 26.3267 0.503986 
234 1 37.5363 30.6253 0.503986 
235 1 37.5363 33.4911 4.55682 
236 1 35.0545 29.1924 4.55682 
237 1 40.0182 26.3267 0.503986 
238 1 42.5 30.6253 0.503986 
239 1 42.5 33.4911 4.55682 
240 1 40.0182 29.1924 4.55682 
241 1 44.9818 26.3267 0.503986 
242 1 47.4637 30.6253 0.503986 
243 1 47.4637 33.4911 4.55682 
244 1 44.9818 29.1924 4.55682 
245 1 49.9455 26.3267 0.503986 
246 1 52.4274 30.6253 0.503986 
247 1 52.4274 33.4911 4.55682 
248 1 49.9455 29.1924 4.55682 
249 1 54.9092 26.3267 0.503986 
250 1 57.3911 30.6253 0.503986 
251 1 57.3911 33.4911 4.55682 
252 1 54.9092 29.1924 4.55682 
253 1 59.8729 26.3267 0.503986 
254 1 62.3548 30.6253 0.503986 
255 1 62.3548 33.4911 4.55682 
256 1 59.8729 29.1924 4.55682 
257 1 64.8366 26.3267 0.503986 
258 1 67.3185 30.6253 0.503986 
259 1 67.3185 33.4911 4.55682 
260 1 64.8366 29.1924 4.55682 
261 1 69.8003 26.3267 0.503986 
262 1 72.2821 30.6253 0.503986 
263 1 72.2821 33.4911 4.55682 
264 1 69.8003 29.1924 4.55682 
265 1 74.764 26.3267 0.503986 
266 1 77.2458 30.6253 0.503986 
267 1 77.2458 33.4911 4.55682 
268 1 74.764 29.1924 4.55682 
269 1 79.7277 26.3267 0.503986 
270 1 82.2095 30.6253 0.503986 
271 1 82.2095 33.4911 4.55682 
272 1 79.7277 29.1924 4.55682 
273 1 0.308627 34.924 0.503986 
274 1 2.79047 39.2227 0.503986 
275 1 2.79047 42.0885 4.55682 
276 1 0.308627 37.7898 4.55682 
277 1 5.27232 34.924 0.503986 
278 1 7.75416 39.2227 0.503986 
279 1 7.75416 42.0885 4.55682 
280 1 5.27232 37.7898 4.55682 
281 1 10.236 34.924 0.503986 
282 1 12.7179 39.2227 0.503986 
283 1 12.7179 42.0885 4.55682 
284 1 10.236 37.7898 4.55682 
285 1 15.1997 34.924 0.503986 
286 1 17.6815 39.2227 0.503986 
287 1 17.6815 42.0885 4.55682 
288 1 15.1997 37.7898 4.55682 
289 1 20.1634 34.924 0.503986 
290 1 22.6452 39.2227 0.503986 
291 1 22.6452 42.0885 4.55682 
292 1 20.1634 37.7898 4.55682 
293 1 25.1271 34.924 0.503986 
294 1 27.6089 39.2227 0.503986 
295 1 27.6089 42.0885 4.55682 
296 1 25.1271 37.7898 4.55682 
297 1 30.0908 34.924 0.503986 
298 1 32.5726 39.2227 0.503986 
299 1 32.5726 42.0885 4.55682 
300 1 30.0908 37.7898 4.55682 
301 1 35.0545 34.924 0.503986 
302 1 37.5363 39.2227 0.503986 
303 1 37.5363 42.0885 4.55682 
304 1 35.0545 37.7898 4.55682 
305 1 40.0182 34.924 0.503986 
306 1 42.5 39.2227 0.503986 
307 1 42.5 42.0885 4.55682 
308 1 40.0182 37.7898 4.55682 
309 1 44.9818 34.924 0.503986 
310 1 47.4637 39.2227 0.503986 
311 1 47.4637 42.0885 4.55682 
312 1 44.9818 37.7898 4.55682 
313 1 49.9455 34.924 0.503986 
314 1 52.4274 39.2227 0.503986 
315 1 52.4274 42.0885 4.55682 
316 1 49.9455 37.7898 4.55682 
317 1 54.9092 34.924 0.503986 
318 1 57.3911 39.2227 0.503986 
319 1 57.3911 42.0885 4.55682 
320 1 54.9092 37.7898 4.55682 
321 1 59.8729 34.924 0.503986 
322 1 62.3548 39.2227 0.503986 
323 1 62.3548 42.0885 4.55682 
324 1 59.8729 37.7898 4.55682 
325 1 64.8366 34.924 0.503986 
326 1 67.3185 39.2227 0.503986 
327 1 67.3185 42.0885 4.55682 
328 1 64.8366 37.7898 4.55682 
329 1 69.8003 34.924 0.503986 
330 1 72.2821 39.2227 0.503986 
331 1 72.2821 42.0885 4.55682 
332 1 69.8003 37.7898 4.55682 
333 1 74.764 34.924 0.503986 
334 1 77.2458 39.2227 0.503986 
335 1 77.2458 42.0885 4.55682 
336 1 74.764 37.7898 4.55682 
337 1 79.7277 34.924 0.503986 
338 1 82.2095 39.2227 0.503986 
339 1 82.2095 42.0885 4.55682 
340 1 79.7277 37.7898 4.55682 
341 1 0.308627 43.5214 0.503986 
342 1 2.79047 47.8201 0.503986 
343 1 2.79047 50.6859 4.55682 
344 1 0.308627 46.3872 4.55682 
345 1 5.27232 43.5214 0.503986 
346 1 7.75416 47.8201 0.503986 
347 1 7.75416 50.6859 4.55682 
348 1 5.27232 46.3872 4.55682 
349 1 10.236 43.5214 0.503986 
350 1 12.7179 47.8201 0.503986 
351 1 12.7179 50.6859 4.55682 
352 1 10.236 46.3872 4.55682 
353 1 15.1997 43.5214 0.503986 
354 1 17.6815 47.8201 0.503986 
355 1 17.6815 50.6859 4.55682 
356 1 15.1997 46.3872 4.55682 
357 1 20.1634 43.5214 0.503986 
358 1 22.6452 47.8201 0.503986 
359 1 22.6452 50.6859 4.55682 
360 1 20.1634 46.3872 4.55682 
361 1 25.1271 43.5214 0.503986 
362 1 27.6089 47.8201 0.503986 
363 1 27.6089 50.6859 4.55682 
364 1 25.1271 46.3872 4.55682 
365 1 30.0908 43.5214 0.503986 
366 1 32.5726 47.8201 0.503986 
367 1 32.5726 50.6859 4.55682 
368 1 30.0908 46.3872 4.55682 
369 1 35.0545 43.5214 0.503986 
370 1 37.5363 47.8201 0.503986 
371 1 37.5363 50.6859 4.55682 
372 1 35.0545 46.3872 4.55682 
373 1 40.0182 43.5214 0.503986 
374 1 42.5 47.8201 0.503986 
375 1 42.5 50.6859 4.55682 
376 1 40.0182 46.3872 4.55682 
377 1 44.9818 43.5214 0.503986 
378 1 47.4637 47.8201 0.503986 
379 1 47.4637 50.6859 4.55682 
380 1 44.9818 46.3872 4.55682 
381 1 49.9455 43.5214 0.503986 
382 1 52.4274 47.8201 0.503986 
383 1 52.4274 50.6859 4.55682 
384 1 49.9455 46.3872 4.55682 
385 1 54.9092 43.5214 0.503986 
386 1 57.3911 47.8201 0.503986 
387 1 57.3911 50.6859 4.55682 
388 1 54.9092 46.3872 4.55682 
389 1 59.8729 43.5214 0.503986 
390 1 62.3548 47.8201 0.503986 
391 1 62.3548 50.6859 4.55682 
392 1 59.8729 46.3872 4.55682 
393 1 64.8366 43.5214 0.503986 
394 1 67.3185 47.8201 0.503986 
395 1 67.3185 50.6859 4.55682 
396 1 64.8366 46.3872 4.55682 
397 1 69.8003 43.5214 0.503986 
398 1 72.2821 47.8201 0.503986 
399 1 72.2821 50.6859 4.55682 
400 1 69.8003 46.3872 4.55682 
401 1 74.764 43.5214 0.503986 
402 1 77.2458 47.8201 0.503986 
403 1 77.2458 50.6859 4.55682 
404 1 74.764 46.3872 4.55682 
405 1 79.7277 43.5214 0.503986 
406 1 82.2095 47.8201 0.503986 
407 1 82.2095 50.6859 4.55682 
408 1 79.7277 46.3872 4.55682 
409 1 0.308627 52.1187 0.503986 
410 1 2.79047 56.4174 0.503986 
411 1 2.79047 59.2832 4.55682 
412 1 0.308627 54.9845 4.55682 
413 1 5.27232 52.1187 0.503986 
414 1 7.75416 56.4174 0.503986 
415 1 7.75416 59.2832 4.55682 
416 1 5.27232 54.9845 4.55682 
417 1 10.236 52.1187 0.503986 
418 1 12.7179 56.4174 0.503986 
419 1 12.7179 59.2832 4.55682 
420 1 10.236 54.9845 4.55682 
421 1 15.1997 52.1187 0.503986 
422 1 17.6815 56.4174 0.503986 
423 1 17.6815 59.2832 4.55682 
424 1 15.1997 54.9845 4.55682 
425 1 20.1634 52.1187 0.503986 
426 1 22.6452 56.4174 0.503986 
427 1 22.6452 59.2832 4.55682 
428 1 20.1634 54.9845 4.55682 
429 1 25.1271 52.1187 0.503986 
430 1 27.6089 56.4174 0.503986 
431 1 27.6089 59.2832 4.55682 
432 1 25.1271 54.9845 4.55682 
433 1 30.0908 52.1187 0.503986 
434 1 32.5726 56.4174 0.503986 
435 1 32.5726 59.2832 4.55682 
436 1 30.0908 54.9845 4.55682 
437 1 35.0545 52.1187 0.503986 
438 1 37.5363 56.4174 0.503986 
439 1 37.5363 59.2832 4.55682 
440 1 35.0545 54.9845 4.55682 
441 1 40.0182 52.1187 0.503986 
442 1 42.5 56.4174 0.503986 
443 1 42.5 59.2832 4.55682 
444 1 40.0182 54.9845 4.55682 
445 1 44.9818 52.1187 0.503986 
446 1 47.4637 56.4174 0.503986 
447 1 47.4637 59.2832 4.55682 
448 1 44.9818 54.9845 4.55682 
449 1 49.9455 52.1187 0.503986 
450 1 52.4274 56.4174 0.503986 
451 1 52.4274 59.2832 4.55682 
452 1 49.9455 54.9845 4.55682 
453 1 54.9092 52.1187 0.503986 
454 1 57.3911 56.4174 0.503986 
455 1 57.3911 59.2832 4.55682 
456 1 54.9092 54.9845 4.55682 
457 1 59.8729 52.1187 0.503986 
458 1 62.3548 56.4174 0.503986 
459 1 62.3548 59.2832 4.55682 
460 1 59.8729 54.9845 4.55682 
461 1 64.8366 52.1187 0.503986 
462 1 67.3185 56.4174 0.503986 
463 1 67.3185 59.2832 4.55682 
464 1 64.8366 54.9845 4.55682 
465 1 69.8003 52.1187 0.503986 
466 1 72.2821 56.4174 0.503986 
467 1 72.2821 59.2832 4.55682 
468 1 69.8003 54.9845 4.55682 
469 1 74.764 52.1187 0.503986 
470 1 77.2458 56.4174 0.503986 
471 1 77.2458 59.2832 4.55682 
472 1 74.764 54.9845 4.55682 
473 1 79.7277 52.1187 0.503986 
474 1 82.2095 56.4174 0.503986 
475 1 82.2095 59.2832 4.55682 
476 1 79.7277 54.9845 4.55682 
477 1 0.308627 60.7161 0.503986 
478 1 2.79047 65.0148 0.503986 
479 1 2.79047 67.8806 4.55682 
480 1 0.308627 63.5819 4.55682 
481 1 5.27232 60.7161 0.503986 
482 1 7.75416 65.0148 0.503986 
483 1 7.75416 67.8806 4.55682 
484 1 5.27232 63.5819 4.55682 
485 1 10.236 60.7161 0.503986 
486 1 12.7179 65.0148 0.503986 
487 1 12.7179 67.8806 4.55682 
488 1 10.236 63.5819 4.55682 
489 1 15.1997 60.7161 0.503986 
490 1 17.6815 65.0148 0.503986 
491 1 17.6815 67.8806 4.55682 
492 1 15.1997 63.5819 4.55682 
493 1 20.1634 60.7161 0.503986 
494 1 22.6452 65.0148 0.503986 
495 1 22.6452 67.8806 4.55682 
496 1 20.1634 63.5819 4.55682 
497 1 25.1271 60.7161 0.503986 
498 1 27.6089 65.0148 0.503986 
499 1 27.6089 67.8806 4.55682 
500 1 25.1271 63.5819 4.55682 
501 1 30.0908 60.7161 0.503986 
502 1 32.5726 65.0148 0.503986 
503 1 32.5726 67.8806 4.55682 
504 1 30.0908 63.5819 4.55682 
505 1 35.0545 60.7161 0.503986 
506 1 37.5363 65.0148 0.503986 
507 1 37.5363 67.8806 4.55682 
508 1 35.0545 63.5819 4.55682 
509 1 40.0182 60.7161 0.503986 
510 1 42.5 65.0148 0.503986 
511 1 42.5 67.8806 4.55682 
512 1 40.0182 63.5819 4.55682 
513 1 44.9818 60.7161 0.503986 
514 1 47.4637 65.0148 0.503986 
515 1 47.4637 67.8806 4.55682 
516 1 44.9818 63.5819 4.55682 
517 1 49.9455 60.7161 0.503986 
518 1 52.4274 65.0148 0.503986 
519 1 52.4274 67.8806 4.55682 
520 1 49.9455 63.5819 4.55682 
521 1 54.9092 60.7161 0.503986 
522 1 57.3911 65.0148 0.503986 
523 1 57.3911 67.8806 4.55682 
524 1 54.9092 63.5819 4.55682 
525 1 59.8729 60.7161 0.503986 
526 1 62.3548 65.0148 0.503986 
527 1 62.3548 67.8806 4.55682 
528 1 59.8729 63.5819 4.55682 
529 1 64.8366 60.7161 0.503986 
530 1 67.3185 65.0148 0.503986 
531 1 67.3185 67.8806 4.55682 
532 1 64.8366 63.5819 4.55682 
533 1 69.8003 60.7161 0.503986 
534 1 72.2821 65.0148 0.503986 
535 1 72.2821 67.8806 4.55682 
536 1 69.8003 63.5819 4.55682 
537 1 74.764 60.7161 0.503986 
538 1 77.2458 65.0148 0.503986 
539 1 77.2458 67.8806 4.55682 
540 1 74.764 63.5819 4.55682 
541 1 79.7277 60.7161 0.503986 
542 1 82.2095 65.0148 0.503986 
543 1 82.2095 67.8806 4.55682 
544 1 79.7277 63.5819 4.55682 
545 1 0.308627 69.3135 0.503986 
546 1 2.79047 73.6122 0.503986 
547 1 2.79047 76.4779 4.55682 
548 1 0.308627 72.1793 4.55682 
549 1 5.27232 69.3135 0.503986 
550 1 7.75416 73.6122 0.503986 
551 1 7.75416 76.4779 4.55682 
552 1 5.27232 72.1793 4.55682 
553 1 10.236 69.3135 0.503986 
554 1 12.7179 73.6122 0.503986 
555 1 12.7179 76.4779 4.55682 
556 1 10.236 72.1793 4.55682 
557 1 15.1997 69.3135 0.503986 
558 1 17.6815 73.6122 0.503986 
559 1 17.6815 76.4779 4.55682 
560 1 15.1997 72.1793 4.55682 
561 1 20.1634 69.3135 0.503986 
562 1 22.6452 73.6122 0.503986 
563 1 22.6452 76.4779 4.55682 
564 1 20.1634 72.1793 4.55682 
565 1 25.1271 69.3135 0.503986 
566 1 27.6089 73.6122 0.503986 
567 1 27.6089 76.4779 4.55682 
568 1 25.1271 72.1793 4.55682 
569 1 30.0908 69.3135 0.503986 
570 1 32.5726 73.6122 0.503986 
571 1 32.5726 76.4779 4.55682 
572 1 30.0908 72.1793 4.55682 
573 1 35.0545 69.3135 0.503986 
574 1 37.5363 73.6122 0.503986 
575 1 37.5363 76.4779 4.55682 
576 1 35.0545 72.1793 4.55682 
577 1 40.0182 69.3135 0.503986 
578 1 42.5 73.6122 0.503986 
579 1 42.5 76.4779 4.55682 
580 1 40.0182 72.1793 4.55682 
581 1 44.9818 69.3135 0.503986 
582 1 47.4637 73.6122 0.503986 
583 1 47.4637 76.4779 4.55682 
584 1 44.9818 72.1793 4.55682 
585 1 49.9455 69.3135 0.503986 
586 1 52.4274 73.6122 0.503986 
587 1 52.4274 76.4779 4.55682 
588 1 49.9455 72.1793 4.55682 
589 1 54.9092 69.3135 0.503986 
590 1 57.3911 73.6122 0.503986 
591 1 57.3911 76.4779 4.55682 
592 1 54.9092 72.1793 4.55682 
593 1 59.8729 69.3135 0.503986 
594 1 62.3548 73.6122 0.503986 
595 1 62.3548 76.4779 4.55682 
596 1 59.8729 72.1793 4.55682 
597 1 64.8366 69.3135 0.503986 
598 1 67.3185 73.6122 0.503986 
599 1 67.3185 76.4779 4.55682 
600 1 64.8366 72.1793 4.55682 
601 1 69.8003 69.3135 0.503986 
602 1 72.2821 73.6122 0.503986 
603 1 72.2821 76.4779 4.55682 
604 1 69.8003 72.1793 4.55682 
605 1 74.764 69.3135 0.503986 
606 1 77.2458 73.6122 0.503986 
607 1 77.2458 76.4779 4.55682 
608 1 74.764 72.1793 4.55682 
609 1 79.7277 69.3135 0.503986 
610 1 82.2095 73.6122 0.503986 
611 1 82.2095 76.4779 4.55682 
612 1 79.7277 72.1793 4.55682 
613 1 0.308627 77.9108 0.503986 
614 1 2.79047 82.2095 0.503986 
615 1 2.79047 85.0753 4.55682 
616 1 0.308627 80.7766 4.55682 
617 1 5.27232 77.9108 0.503986 
618 1 7.75416 82.2095 0.503986 
619 1 7.75416 85.0753 4.55682 
620 1 5.27232 80.7766 4.55682 
621 1 10.236 77.9108 0.503986 
622 1 12.7179 82.2095 0.503986 
623 1 12.7179 85.0753 4.55682 
624 1 10.236 80.7766 4.55682 
625 1 15.1997 77.9108 0.503986 
626 1 17.6815 82.2095 0.503986 
627 1 17.6815 85.0753 4.55682 
628 1 15.1997 80.7766 4.55682 
629 1 20.1634 77.9108 0.503986 
630 1 22.6452 82.2095 0.503986 
631 1 22.6452 85.0753 4.55682 
632 1 20.1634 80.7766 4.55682 
633 1 25.1271 77.9108 0.503986 
634 1 27.6089 82.2095 0.503986 
635 1 27.6089 85.0753 4.55682 
636 1 25.1271 80.7766 4.55682 
637 1 30.0908 77.9108 0.503986 
638 1 32.5726 82.2095 0.503986 
639 1 32.5726 85.0753 4.55682 
640 1 30.0908 80.7766 4.55682 
641 1 35.0545 77.9108 0.503986 
642 1 37.5363 82.2095 0.503986 
643 1 37.5363 85.0753 4.55682 
644 1 35.0545 80.7766 4.55682 
645 1 40.0182 77.9108 0.503986 
646 1 42.5 82.2095 0.503986 
647 1 42.5 85.0753 4.55682 
648 1 40.0182 80.7766 4.55682 
649 1 44.9818 77.9108 0.503986 
650 1 47.4637 82.2095 0.503986 
651 1 47.4637 85.0753 4.55682 
652 1 44.9818 80.7766 4.55682 
653 1 49.9455 77.9108 0.503986 
654 1 52.4274 82.2095 0.503986 
655 1 52.4274 85.0753 4.55682 
656 1 49.9455 80.7766 4.55682 
657 1 54.9092 77.9108 0.503986 
658 1 57.3911 82.2095 0.503986 
659 1 57.3911 85.0753 4.55682 
660 1 54.9092 80.7766 4.55682 
661 1 59.8729 77.9108 0.503986 
662 1 62.3548 82.2095 0.503986 
663 1 62.3548 85.0753 4.55682 
664 1 59.8729 80.7766 4.55682 
665 1 64.8366 77.9108 0.503986 
666 1 67.3185 82.2095 0.503986 
667 1 67.3185 85.0753 4.55682 
668 1 64.8366 80.7766 4.55682 
669 1 69.8003 77.9108 0.503986 
670 1 72.2821 82.2095 0.503986 
671 1 72.2821 85.0753 4.55682 
672 1 69.8003 80.7766 4.55682 
673 1 74.764 77.9108 0.503986 
674 1 77.2458 82.2095 0.503986 
675 1 77.2458 85.0753 4.55682 
676 1 74.764 80.7766 4.55682 
677 1 79.7277 77.9108 0.503986 
678 1 82.2095 82.2095 0.503986 
679 1 82.2095 85.0753 4.55682 
680 1 79.7277 80.7766 4.55682 
681 1 0.308627 86.5082 0.503986 
682 1 2.79047 90.8069 0.503986 
683 1 2.79047 93.6727 4.55682 
684 1 0.308627 89.374 4.55682 
685 1 5.27232 86.5082 0.503986 
686 1 7.75416 90.8069 0.503986 
687 1 7.75416 93.6727 4.55682 
688 1 5.27232 89.374 4.55682 
689 1 10.236 86.5082 0.503986 
690 1 12.7179 90.8069 0.503986 
691 1 12.7179 93.6727 4.55682 
692 1 10.236 89.374 4.55682 
693 1 15.1997 86.5082 0.503986 
694 1 17.6815 90.8069 0.503986 
695 1 17.6815 93.6727 4.55682 
696 1 15.1997 89.374 4.55682 
697 1 20.1634 86.5082 0.503986 
698 1 22.6452 90.8069 0.503986 
699 1 22.6452 93.6727 4.55682 
700 1 20.1634 89.374 4.55682 
701 1 25.1271 86.5082 0.503986 
702 1 27.6089 90.8069 0.503986 
703 1 27.6089 93.6727 4.55682 
704 1 25.1271 89.374 4.55682 
705 1 30.0908 86.5082 0.503986 
706 1 32.5726 90.8069 0.503986 
707 1 32.5726 93.6727 4.55682 
708 1 30.0908 89.374 4.55682 
709 1 35.0545 86.5082 0.503986 
710 1 37.5363 90.8069 0.503986 
711 1 37.5363 93.6727 4.55682 
712 1 35.0545 89.374 4.55682 
713 1 40.0182 86.5082 0.503986 
714 1 42.5 90.8069 0.503986 
715 1 42.5 93.6727 4.55682 
716 1 40.0182 89.374 4.55682 
717 1 44.9818 86.5082 0.503986 
718 1 47.4637 90.8069 0.503986 
719 1 47.4637 93.6727 4.55682 
720 1 44.9818 89.374 4.55682 
721 1 49.9455 86.5082 0.503986 
722 1 52.4274 90.8069 0.503986 
723 1 52.4274 93.6727 4.55682 
724 1 49.9455 89.374 4.55682 
725 1 54.9092 86.5082 0.503986 
726 1 57.3911 90.8069 0.503986 
727 1 57.3911 93.6727 4.55682 
728 1 54.9092 89.374 4.55682 
729 1 59.8729 86.5082 0.503986 
730 1 62.3548 90.8069 0.503986 
731 1 62.3548 93.6727 4.55682 
732 1 59.8729 89.374 4.55682 
733 1 64.8366 86.5082 0.503986 
734 1 67.3185 90.8069 0.503986 
735 1 67.3185 93.6727 4.55682 
736 1 64.8366 89.374 4.55682 
737 1 69.8003 86.5082 0.503986 
738 1 72.2821 90.8069 0.503986 
739 1 72.2821 93.6727 4.55682 
740 1 69.8003 89.374 4.55682 
741 1 74.764 86.5082 0.503986 
742 1 77.2458 90.8069 0.503986 
743 1 77.2458 93.6727 4.55682 
744 1 74.764 89.374 4.55682 
745 1 79.7277 86.5082 0.503986 
746 1 82.2095 90.8069 0.503986 
747 1 82.2095 93.6727 4.55682 
748 1 79.7277 89.374 4.55682 
749 1 0.308627 95.1056 0.503986 
750 1 2.79047 99.4043 0.503986 
751 1 2.79047 102.27 4.55682 
752 1 0.308627 97.9714 4.55682 
753 1 5.27232 95.1056 0.503986 
754 1 7.75416 99.4043 0.503986 
755 1 7.75416 102.27 4.55682 
756 1 5.27232 97.9714 4.55682 
757 1 10.236 95.1056 0.503986 
758 1 12.7179 99.4043 0.503986 
759 1 12.7179 102.27 4.55682 
760 1 10.236 97.9714 4.55682 
761 1 15.1997 95.1056 0.503986 
762 1 17.6815 99.4043 0.503986 
763 1 17.6815 102.27 4.55682 
764 1 15.1997 97.9714 4.55682 
765 1 20.1634 95.1056 0.503986 
766 1 22.6452 99.4043 0.503986 
767 1 22.6452 102.27 4.55682 
768 1 20.1634 97.9714 4.55682 
769 1 25.1271 95.1056 0.503986 
770 1 27.6089 99.4043 0.503986 
771 1 27.6089 102.27 4.55682 
772 1 25.1271 97.9714 4.55682 
773 1 30.0908 95.1056 0.503986 
774 1 32.5726 99.4043 0.503986 
775 1 32.5726 102.27 4.55682 
776 1 30.0908 97.9714 4.55682 
777 1 35.0545 95.1056 0.503986 
778 1 37.5363 99.4043 0.503986 
779 1 37.5363 102.27 4.55682 
780 1 35.0545 97.9714 4.55682 
781 1 40.0182 95.1056 0.503986 
782 1 42.5 99.4043 0.503986 
783 1 42.5 102.27 4.55682 
784 1 40.0182 97.9714 4.55682 
785 1 44.9818 95.1056 0.503986 
786 1 47.4637 99.4043 0.503986 
787 1 47.4637 102.27 4.55682 
788 1 44.9818 97.9714 4.55682 
789 1 49.9455 95.1056 0.503986 
790 1 52.4274 99.4043 0.503986 
791 1 52.4274 102.27 4.55682 
792 1 49.9455 97.9714 4.55682 
793 1 54.9092 95.1056 0.503986 
794 1 57.3911 99.4043 0.503986 
795 1 57.3911 102.27 4.55682 
796 1 54.9092 97.9714 4.55682 
797 1 59.8729 95.1056 0.503986 
798 1 62.3548 99.4043 0.503986 
799 1 62.3548 102.27 4.55682 
800 1 59.8729 97.9714 4.55682 
801 1 64.8366 95.1056 0.503986 
802 1 67.3185 99.4043 0.503986 
803 1 67.3185 102.27 4.55682 
804 1 64.8366 97.9714 4.55682 
805 1 69.8003 95.1056 0.503986 
806 1 72.2821 99.4043 0.503986 
807 1 72.2821 102.27 4.55682 
808 1 69.8003 97.9714 4.55682 
809 1 74.764 95.1056 0.503986 
810 1 77.2458 99.4043 0.503986 
811 1 77.2458 102.27 4.55682 
812 1 74.764 97.9714 4.55682 
813 1 79.7277 95.1056 0.503986 
814 1 82.2095 99.4043 0.503986 
815 1 82.2095 102.27 4.55682 
816 1 79.7277 97.9714 4.55682 
817 1 0.308627 103.703 0.503986 
818 1 2.79047 108.002 0.503986 
819 1 2.79047 110.867 4.55682 
820 1 0.308627 106.569 4.55682 
821 1 5.27232 103.703 0.503986 
822 1 7.75416 108.002 0.503986 
823 1 7.75416 110.867 4.55682 
824 1 5.27232 106.569 4.55682 
825 1 10.236 103.703 0.503986 
826 1 12.7179 108.002 0.503986 
827 1 12.7179 110.867 4.55682 
828 1 10.236 106.569 4.55682 
829 1 15.1997 103.703 0.503986 
830 1 17.6815 108.002 0.503986 
831 1 17.6815 110.867 4.55682 
832 1 15.1997 106.569 4.55682 
833 1 20.1634 103.703 0.503986 
834 1 22.6452 108.002 0.503986 
835 1 22.6452 110.867 4.55682 
836 1 20.1634 106.569 4.55682 
837 1 25.1271 103.703 0.503986 
838 1 27.6089 108.002 0.503986 
839 1 27.6089 110.867 4.55682 
840 1 25.1271 106.569 4.55682 
841 1 30.0908 103.703 0.503986 
842 1 32.5726 108.002 0.503986 
843 1 32.5726 110.867 4.55682 
844 1 30.0908 106.569 4.55682 
845 1 35.0545 103.703 0.503986 
846 1 37.5363 108.002 0.503986 
847 1 37.5363 110.867 4.55682 
848 1 35.0545 106.569 4.55682 
849 1 40.0182 103.703 0.503986 
850 1 42.5 108.002 0.503986 
851 1 42.5 110.867 4.55682 
852 1 40.0182 106.569 4.55682 
853 1 44.9818 103.703 0.503986 
854 1 47.4637 108.002 0.503986 
855 1 47.4637 110.867 4.55682 
856 1 44.9818 106.569 4.55682 
857 1 49.9455 103.703 0.503986 
858 1 52.4274 108.002 0.503986 
859 1 52.4274 110.867 4.55682 
860 1 49.9455 106.569 4.55682 
861 1 54.9092 103.703 0.503986 
862 1 57.3911 108.002 0.503986 
863 1 57.3911 110.867 4.55682 
864 1 54.9092 106.569 4.55682 
865 1 59.8729 103.703 0.503986 
866 1 62.3548 108.002 0.503986 
867 1 62.3548 110.867 4.55682 
868 1 59.8729 106.569 4.55682 
869 1 64.8366 103.703 0.503986 
870 1 67.3185 108.002 0.503986 
871 1 67.3185 110.867 4.55682 
872 1 64.8366 106.569 4.55682 
873 1 69.8003 103.703 0.503986 
874 1 72.2821 108.002 0.503986 
875 1 72.2821 110.867 4.55682 
876 1 69.8003 106.569 4.55682 
877 1 74.764 103.703 0.503986 
878 1 77.2458 108.002 0.503986 
879 1 77.2458 110.867 4.55682 
880 1 74.764 106.569 4.55682 
881 1 79.7277 103.703 0.503986 
882 1 82.2095 108.002 0.503986 
883 1 82.2095 110.867 4.55682 
884 1 79.7277 106.569 4.55682 
885 1 0.308627 112.3 0.503986 
886 1 2.79047 116.599 0.503986 
887 1 2.79047 119.465 4.55682 
888 1 0.308627 115.166 4.55682 
889 1 5.27232 112.3 0.503986 
890 1 7.75416 116.599 0.503986 
891 1 7.75416 119.465 4.55682 
892 1 5.27232 115.166 4.55682 
893 1 10.236 112.3 0.503986 
894 1 12.7179 116.599 0.503986 
895 1 12.7179 119.465 4.55682 
896 1 10.236 115.166 4.55682 
897 1 15.1997 112.3 0.503986 
898 1 17.6815 116.599 0.503986 
899 1 17.6815 119.465 4.55682 
900 1 15.1997 115.166 4.55682 
901 1 20.1634 112.3 0.503986 
902 1 22.6452 116.599 0.503986 
903 1 22.6452 119.465 4.55682 
904 1 20.1634 115.166 4.55682 
905 1 25.1271 112.3 0.503986 
906 1 27.6089 116.599 0.503986 
907 1 27.6089 119.465 4.55682 
908 1 25.1271 115.166 4.55682 
909 1 30.0908 112.3 0.503986 
910 1 32.5726 116.599 0.503986 
911 1 32.5726 119.465 4.55682 
912 1 30.0908 115.166 4.55682 
913 1 35.0545 112.3 0.503986 
914 1 37.5363 116.599 0.503986 
915 1 37.5363 119.465 4.55682 
916 1 35.0545 115.166 4.55682 
917 1 40.0182 112.3 0.503986 
918 1 42.5 116.599 0.503986 
919 1 42.5 119.465 4.55682 
920 1 40.0182 115.166 4.55682 
921 1 44.9818 112.3 0.503986 
922 1 47.4637 116.599 0.503986 
923 1 47.4637 119.465 4.55682 
924 1 44.9818 115.166 4.55682 
925 1 49.9455 112.3 0.503986 
926 1 52.4274 116.599 0.503986 
927 1 52.4274 119.465 4.55682 
928 1 49.9455 115.166 4.55682 
929 1 54.9092 112.3 0.503986 
930 1 57.3911 116.599 0.503986 
931 1 57.3911 119.465 4.55682 
932 1 54.9092 115.166 4.55682 
933 1 59.8729 112.3 0.503986 
934 1 62.3548 116.599 0.503986 
935 1 62.3548 119.465 4.55682 
936 1 59.8729 115.166 4.55682 
937 1 64.8366 112.3 0.503986 
938 1 67.3185 116.599 0.503986 
939 1 67.3185 119.465 4.55682 
940 1 64.8366 115.166 4.55682 
941 1 69.8003 112.3 0.503986 
942 1 72.2821 116.599 0.503986 
943 1 72.2821 119.465 4.55682 
944 1 69.8003 115.166 4.55682 
945 1 74.764 112.3 0.503986 
946 1 77.2458 116.599 0.503986 
947 1 77.2458 119.465 4.55682 
948 1 74.764 115.166 4.55682 
949 1 79.7277 112.3 0.503986 
950 1 82.2095 116.599 0.503986 
951 1 82.2095 119.465 4.55682 
952 1 79.7277 115.166 4.55682 
953 1 0.308627 120.898 0.503986 
954 1 2.79047 125.196 0.503986 