ITEM: TIMESTEP
58
ITEM: NUMBER OF ATOMS
19652
ITEM: BOX BOUNDS pp pp pp
1.1896049873211760e+01 7.3103950126787936e+01
1.1896049873211760e+01 7.3103950126787936e+01
1.1896049873211760e+01 7.3103950126787936e+01
ITEM: ATOMS id type xu yu zu 
1 1 11.896 11.896 11.896 
2 1 13.6963 13.6963 11.896 
3 1 13.6963 11.896 13.6963 
4 1 11.896 13.6963 13.6963 
5 1 15.4965 11.896 11.896 
6 1 17.2967 13.6963 11.896 
7 1 17.2967 11.896 13.6963 
8 1 15.4965 13.6963 13.6963 
9 1 19.097 11.896 11.896 
10 1 20.8972 13.6963 11.896 
11 1 20.8972 11.896 13.6963 
12 1 19.097 13.6963 13.6963 
13 1 22.6974 11.896 11.896 
14 1 24.4977 13.6963 11.896 
15 1 24.4977 11.896 13.6963 
16 1 22.6974 13.6963 13.6963 
17 1 26.2979 11.896 11.896 
18 1 28.0981 13.6963 11.896 
19 1 28.0981 11.896 13.6963 
20 1 26.2979 13.6963 13.6963 
21 1 29.8984 11.896 11.896 
22 1 31.6986 13.6963 11.896 
23 1 31.6986 11.896 13.6963 
24 1 29.8984 13.6963 13.6963 
25 1 33.4988 11.896 11.896 
26 1 35.2991 13.6963 11.896 
27 1 35.2991 11.896 13.6963 
28 1 33.4988 13.6963 13.6963 
29 1 37.0993 11.896 11.896 
30 1 38.8995 13.6963 11.896 
31 1 38.8995 11.896 13.6963 
32 1 37.0993 13.6963 13.6963 
33 1 40.6998 11.896 11.896 
34 1 42.5 13.6963 11.896 
35 1 42.5 11.896 13.6963 
36 1 40.6998 13.6963 13.6963 
37 1 44.3002 11.896 11.896 
38 1 46.1005 13.6963 11.896 
39 1 46.1005 11.896 13.6963 
40 1 44.3002 13.6963 13.6963 
41 1 47.9007 11.896 11.896 
42 1 49.7009 13.6963 11.896 
43 1 49.7009 11.896 13.6963 
44 1 47.9007 13.6963 13.6963 
45 1 51.5012 11.896 11.896 
46 1 53.3014 13.6963 11.896 
47 1 53.3014 11.896 13.6963 
48 1 51.5012 13.6963 13.6963 
49 1 55.1016 11.896 11.896 
50 1 56.9019 13.6963 11.896 
51 1 56.9019 11.896 13.6963 
52 1 55.1016 13.6963 13.6963 
53 1 58.7021 11.896 11.896 
54 1 60.5023 13.6963 11.896 
55 1 60.5023 11.896 13.6963 
56 1 58.7021 13.6963 13.6963 
57 1 62.3026 11.896 11.896 
58 1 64.1028 13.6963 11.896 
59 1 64.1028 11.896 13.6963 
60 1 62.3026 13.6963 13.6963 
61 1 65.903 11.896 11.896 
62 1 67.7033 13.6963 11.896 
63 1 67.7033 11.896 13.6963 
64 1 65.903 13.6963 13.6963 
65 1 69.5035 11.896 11.896 
66 1 71.3037 13.6963 11.896 
67 1 71.3037 11.896 13.6963 
68 1 69.5035 13.6963 13.6963 
69 1 11.896 15.4965 11.896 
70 1 13.6963 17.2967 11.896 
71 1 13.6963 15.4965 13.6963 
72 1 11.896 17.2967 13.6963 
73 1 15.4965 15.4965 11.896 
74 1 17.2967 17.2967 11.896 
75 1 17.2967 15.4965 13.6963 
76 1 15.4965 17.2967 13.6963 
77 1 19.097 15.4965 11.896 
78 1 20.8972 17.2967 11.896 
79 1 20.8972 15.4965 13.6963 
80 1 19.097 17.2967 13.6963 
81 1 22.6974 15.4965 11.896 
82 1 24.4977 17.2967 11.896 
83 1 24.4977 15.4965 13.6963 
84 1 22.6974 17.2967 13.6963 
85 1 26.2979 15.4965 11.896 
86 1 28.0981 17.2967 11.896 
87 1 28.0981 15.4965 13.6963 
88 1 26.2979 17.2967 13.6963 
89 1 29.8984 15.4965 11.896 
90 1 31.6986 17.2967 11.896 
91 1 31.6986 15.4965 13.6963 
92 1 29.8984 17.2967 13.6963 
93 1 33.4988 15.4965 11.896 
94 1 35.2991 17.2967 11.896 
95 1 35.2991 15.4965 13.6963 
96 1 33.4988 17.2967 13.6963 
97 1 37.0993 15.4965 11.896 
98 1 38.8995 17.2967 11.896 
99 1 38.8995 15.4965 13.6963 
100 1 37.0993 17.2967 13.6963 
101 1 40.6998 15.4965 11.896 
102 1 42.5 17.2967 11.896 
103 1 42.5 15.4965 13.6963 
104 1 40.6998 17.2967 13.6963 
105 1 44.3002 15.4965 11.896 
106 1 46.1005 17.2967 11.896 
107 1 46.1005 15.4965 13.6963 
108 1 44.3002 17.2967 13.6963 
109 1 47.9007 15.4965 11.896 
110 1 49.7009 17.2967 11.896 
111 1 49.7009 15.4965 13.6963 
112 1 47.9007 17.2967 13.6963 
113 1 51.5012 15.4965 11.896 
114 1 53.3014 17.2967 11.896 
115 1 53.3014 15.4965 13.6963 
116 1 51.5012 17.2967 13.6963 
117 1 55.1016 15.4965 11.896 
118 1 56.9019 17.2967 11.896 
119 1 56.9019 15.4965 13.6963 
120 1 55.1016 17.2967 13.6963 
121 1 58.7021 15.4965 11.896 
122 1 60.5023 17.2967 11.896 
123 1 60.5023 15.4965 13.6963 
124 1 58.7021 17.2967 13.6963 
125 1 62.3026 15.4965 11.896 
126 1 64.1028 17.2967 11.896 
127 1 64.1028 15.4965 13.6963 
128 1 62.3026 17.2967 13.6963 
129 1 65.903 15.4965 11.896 
130 1 67.7033 17.2967 11.896 
131 1 67.7033 15.4965 13.6963 
132 1 65.903 17.2967 13.6963 
133 1 69.5035 15.4965 11.896 
134 1 71.3037 17.2967 11.896 
135 1 71.3037 15.4965 13.6963 
136 1 69.5035 17.2967 13.6963 
137 1 11.896 19.097 11.896 
138 1 13.6963 20.8972 11.896 
139 1 13.6963 19.097 13.6963 
140 1 11.896 20.8972 13.6963 
141 1 15.4965 19.097 11.896 
142 1 17.2967 20.8972 11.896 
143 1 17.2967 19.097 13.6963 
144 1 15.4965 20.8972 13.6963 
145 1 19.097 19.097 11.896 
146 1 20.8972 20.8972 11.896 
147 1 20.8972 19.097 13.6963 
148 1 19.097 20.8972 13.6963 
149 1 22.6974 19.097 11.896 
150 1 24.4977 20.8972 11.896 
151 1 24.4977 19.097 13.6963 
152 1 22.6974 20.8972 13.6963 
153 1 26.2979 19.097 11.896 
154 1 28.0981 20.8972 11.896 
155 1 28.0981 19.097 13.6963 
156 1 26.2979 20.8972 13.6963 
157 1 29.8984 19.097 11.896 
158 1 31.6986 20.8972 11.896 
159 1 31.6986 19.097 13.6963 
160 1 29.8984 20.8972 13.6963 
161 1 33.4988 19.097 11.896 
162 1 35.2991 20.8972 11.896 
163 1 35.2991 19.097 13.6963 
164 1 33.4988 20.8972 13.6963 
165 1 37.0993 19.097 11.896 
166 1 38.8995 20.8972 11.896 
167 1 38.8995 19.097 13.6963 
168 1 37.0993 20.8972 13.6963 
169 1 40.6998 19.097 11.896 
170 1 42.5 20.8972 11.896 
171 1 42.5 19.097 13.6963 
172 1 40.6998 20.8972 13.6963 
173 1 44.3002 19.097 11.896 
174 1 46.1005 20.8972 11.896 
175 1 46.1005 19.097 13.6963 
176 1 44.3002 20.8972 13.6963 
177 1 47.9007 19.097 11.896 
178 1 49.7009 20.8972 11.896 
179 1 49.7009 19.097 13.6963 
180 1 47.9007 20.8972 13.6963 
181 1 51.5012 19.097 11.896 
182 1 53.3014 20.8972 11.896 
183 1 53.3014 19.097 13.6963 
184 1 51.5012 20.8972 13.6963 
185 1 55.1016 19.097 11.896 
186 1 56.9019 20.8972 11.896 
187 1 56.9019 19.097 13.6963 
188 1 55.1016 20.8972 13.6963 
189 1 58.7021 19.097 11.896 
190 1 60.5023 20.8972 11.896 
191 1 60.5023 19.097 13.6963 
192 1 58.7021 20.8972 13.6963 
193 1 62.3026 19.097 11.896 
194 1 64.1028 20.8972 11.896 
195 1 64.1028 19.097 13.6963 
196 1 62.3026 20.8972 13.6963 
197 1 65.903 19.097 11.896 
198 1 67.7033 20.8972 11.896 
199 1 67.7033 19.097 13.6963 
200 1 65.903 20.8972 13.6963 
201 1 69.5035 19.097 11.896 
202 1 71.3037 20.8972 11.896 
203 1 71.3037 19.097 13.6963 
204 1 69.5035 20.8972 13.6963 
205 1 11.896 22.6974 11.896 
206 1 13.6963 24.4977 11.896 
207 1 13.6963 22.6974 13.6963 
208 1 11.896 24.4977 13.6963 
209 1 15.4965 22.6974 11.896 
210 1 17.2967 24.4977 11.896 
211 1 17.2967 22.6974 13.6963 
212 1 15.4965 24.4977 13.6963 
213 1 19.097 22.6974 11.896 
214 1 20.8972 24.4977 11.896 
215 1 20.8972 22.6974 13.6963 
216 1 19.097 24.4977 13.6963 
217 1 22.6974 22.6974 11.896 
218 1 24.4977 24.4977 11.896 
219 1 24.4977 22.6974 13.6963 
220 1 22.6974 24.4977 13.6963 
221 1 26.2979 22.6974 11.896 
222 1 28.0981 24.4977 11.896 
223 1 28.0981 22.6974 13.6963 
224 1 26.2979 24.4977 13.6963 
225 1 29.8984 22.6974 11.896 
226 1 31.6986 24.4977 11.896 
227 1 31.6986 22.6974 13.6963 
228 1 29.8984 24.4977 13.6963 
229 1 33.4988 22.6974 11.896 
230 1 35.2991 24.4977 11.896 
231 1 35.2991 22.6974 13.6963 
232 1 33.4988 24.4977 13.6963 
233 1 37.0993 22.6974 11.896 
234 1 38.8995 24.4977 11.896 
235 1 38.8995 22.6974 13.6963 
236 1 37.0993 24.4977 13.6963 
237 1 40.6998 22.6974 11.896 
238 1 42.5 24.4977 11.896 
239 1 42.5 22.6974 13.6963 
240 1 40.6998 24.4977 13.6963 
241 1 44.3002 22.6974 11.896 
242 1 46.1005 24.4977 11.896 
243 1 46.1005 22.6974 13.6963 
244 1 44.3002 24.4977 13.6963 
245 1 47.9007 22.6974 11.896 
246 1 49.7009 24.4977 11.896 
247 1 49.7009 22.6974 13.6963 
248 1 47.9007 24.4977 13.6963 
249 1 51.5012 22.6974 11.896 
250 1 53.3014 24.4977 11.896 
251 1 53.3014 22.6974 13.6963 
252 1 51.5012 24.4977 13.6963 
253 1 55.1016 22.6974 11.896 
254 1 56.9019 24.4977 11.896 
255 1 56.9019 22.6974 13.6963 
256 1 55.1016 24.4977 13.6963 
257 1 58.7021 22.6974 11.896 
258 1 60.5023 24.4977 11.896 
259 1 60.5023 22.6974 13.6963 
260 1 58.7021 24.4977 13.6963 
261 1 62.3026 22.6974 11.896 
262 1 64.1028 24.4977 11.896 
263 1 64.1028 22.6974 13.6963 
264 1 62.3026 24.4977 13.6963 
265 1 65.903 22.6974 11.896 
266 1 67.7033 24.4977 11.896 
267 1 67.7033 22.6974 13.6963 
268 1 65.903 24.4977 13.6963 
269 1 69.5035 22.6974 11.896 
270 1 71.3037 24.4977 11.896 
271 1 71.3037 22.6974 13.6963 
272 1 69.5035 24.4977 13.6963 
273 1 11.896 26.2979 11.896 
274 1 13.6963 28.0981 11.896 
275 1 13.6963 26.2979 13.6963 
276 1 11.896 28.0981 13.6963 
277 1 15.4965 26.2979 11.896 
278 1 17.2967 28.0981 11.896 
279 1 17.2967 26.2979 13.6963 
280 1 15.4965 28.0981 13.6963 
281 1 19.097 26.2979 11.896 
282 1 20.8972 28.0981 11.896 
283 1 20.8972 26.2979 13.6963 
284 1 19.097 28.0981 13.6963 
285 1 22.6974 26.2979 11.896 
286 1 24.4977 28.0981 11.896 
287 1 24.4977 26.2979 13.6963 
288 1 22.6974 28.0981 13.6963 
289 1 26.2979 26.2979 11.896 
290 1 28.0981 28.0981 11.896 
291 1 28.0981 26.2979 13.6963 
292 1 26.2979 28.0981 13.6963 
293 1 29.8984 26.2979 11.896 
294 1 31.6986 28.0981 11.896 
295 1 31.6986 26.2979 13.6963 
296 1 29.8984 28.0981 13.6963 
297 1 33.4988 26.2979 11.896 
298 1 35.2991 28.0981 11.896 
299 1 35.2991 26.2979 13.6963 
300 1 33.4988 28.0981 13.6963 
301 1 37.0993 26.2979 11.896 
302 1 38.8995 28.0981 11.896 
303 1 38.8995 26.2979 13.6963 
304 1 37.0993 28.0981 13.6963 
305 1 40.6998 26.2979 11.896 
306 1 42.5 28.0981 11.896 
307 1 42.5 26.2979 13.6963 
308 1 40.6998 28.0981 13.6963 
309 1 44.3002 26.2979 11.896 
310 1 46.1005 28.0981 11.896 
311 1 46.1005 26.2979 13.6963 
312 1 44.3002 28.0981 13.6963 
313 1 47.9007 26.2979 11.896 
314 1 49.7009 28.0981 11.896 
315 1 49.7009 26.2979 13.6963 
316 1 47.9007 28.0981 13.6963 
317 1 51.5012 26.2979 11.896 
318 1 53.3014 28.0981 11.896 
319 1 53.3014 26.2979 13.6963 
320 1 51.5012 28.0981 13.6963 
321 1 55.1016 26.2979 11.896 
322 1 56.9019 28.0981 11.896 
323 1 56.9019 26.2979 13.6963 
324 1 55.1016 28.0981 13.6963 
325 1 58.7021 26.2979 11.896 
326 1 60.5023 28.0981 11.896 
327 1 60.5023 26.2979 13.6963 
328 1 58.7021 28.0981 13.6963 
329 1 62.3026 26.2979 11.896 
330 1 64.1028 28.0981 11.896 
331 1 64.1028 26.2979 13.6963 
332 1 62.3026 28.0981 13.6963 
333 1 65.903 26.2979 11.896 
334 1 67.7033 28.0981 11.896 
335 1 67.7033 26.2979 13.6963 
336 1 65.903 28.0981 13.6963 
337 1 69.5035 26.2979 11.896 
338 1 71.3037 28.0981 11.896 
339 1 71.3037 26.2979 13.6963 
340 1 69.5035 28.0981 13.6963 
341 1 11.896 29.8984 11.896 
342 1 13.6963 31.6986 11.896 
343 1 13.6963 29.8984 13.6963 
344 1 11.896 31.6986 13.6963 
345 1 15.4965 29.8984 11.896 
346 1 17.2967 31.6986 11.896 
347 1 17.2967 29.8984 13.6963 
348 1 15.4965 31.6986 13.6963 
349 1 19.097 29.8984 11.896 
350 1 20.8972 31.6986 11.896 
351 1 20.8972 29.8984 13.6963 
352 1 19.097 31.6986 13.6963 
353 1 22.6974 29.8984 11.896 
354 1 24.4977 31.6986 11.896 
355 1 24.4977 29.8984 13.6963 
356 1 22.6974 31.6986 13.6963 
357 1 26.2979 29.8984 11.896 
358 1 28.0981 31.6986 11.896 
359 1 28.0981 29.8984 13.6963 
360 1 26.2979 31.6986 13.6963 
361 1 29.8984 29.8984 11.896 
362 1 31.6986 31.6986 11.896 
363 1 31.6986 29.8984 13.6963 
364 1 29.8984 31.6986 13.6963 
365 1 33.4988 29.8984 11.896 
366 1 35.2991 31.6986 11.896 
367 1 35.2991 29.8984 13.6963 
368 1 33.4988 31.6986 13.6963 
369 1 37.0993 29.8984 11.896 
370 1 38.8995 31.6986 11.896 
371 1 38.8995 29.8984 13.6963 
372 1 37.0993 31.6986 13.6963 
373 1 40.6998 29.8984 11.896 
374 1 42.5 31.6986 11.896 
375 1 42.5 29.8984 13.6963 
376 1 40.6998 31.6986 13.6963 
377 1 44.3002 29.8984 11.896 
378 1 46.1005 31.6986 11.896 
379 1 46.1005 29.8984 13.6963 
380 1 44.3002 31.6986 13.6963 
381 1 47.9007 29.8984 11.896 
382 1 49.7009 31.6986 11.896 
383 1 49.7009 29.8984 13.6963 
384 1 47.9007 31.6986 13.6963 
385 1 51.5012 29.8984 11.896 
386 1 53.3014 31.6986 11.896 
387 1 53.3014 29.8984 13.6963 
388 1 51.5012 31.6986 13.6963 
389 1 55.1016 29.8984 11.896 
390 1 56.9019 31.6986 11.896 
391 1 56.9019 29.8984 13.6963 
392 1 55.1016 31.6986 13.6963 
393 1 58.7021 29.8984 11.896 
394 1 60.5023 31.6986 11.896 
395 1 60.5023 29.8984 13.6963 
396 1 58.7021 31.6986 13.6963 
397 1 62.3026 29.8984 11.896 
398 1 64.1028 31.6986 11.896 
399 1 64.1028 29.8984 13.6963 
400 1 62.3026 31.6986 13.6963 
401 1 65.903 29.8984 11.896 
402 1 67.7033 31.6986 11.896 
403 1 67.7033 29.8984 13.6963 
404 1 65.903 31.6986 13.6963 
405 1 69.5035 29.8984 11.896 
406 1 71.3037 31.6986 11.896 
407 1 71.3037 29.8984 13.6963 
408 1 69.5035 31.6986 13.6963 
409 1 11.896 33.4988 11.896 
410 1 13.6963 35.2991 11.896 
411 1 13.6963 33.4988 13.6963 
412 1 11.896 35.2991 13.6963 
413 1 15.4965 33.4988 11.896 
414 1 17.2967 35.2991 11.896 
415 1 17.2967 33.4988 13.6963 
416 1 15.4965 35.2991 13.6963 
417 1 19.097 33.4988 11.896 
418 1 20.8972 35.2991 11.896 
419 1 20.8972 33.4988 13.6963 
420 1 19.097 35.2991 13.6963 
421 1 22.6974 33.4988 11.896 
422 1 24.4977 35.2991 11.896 
423 1 24.4977 33.4988 13.6963 
424 1 22.6974 35.2991 13.6963 
425 1 26.2979 33.4988 11.896 
426 1 28.0981 35.2991 11.896 
427 1 28.0981 33.4988 13.6963 
428 1 26.2979 35.2991 13.6963 
429 1 29.8984 33.4988 11.896 
430 1 31.6986 35.2991 11.896 
431 1 31.6986 33.4988 13.6963 
432 1 29.8984 35.2991 13.6963 
433 1 33.4988 33.4988 11.896 
434 1 35.2991 35.2991 11.896 
435 1 35.2991 33.4988 13.6963 
436 1 33.4988 35.2991 13.6963 
437 1 37.0993 33.4988 11.896 
438 1 38.8995 35.2991 11.896 
439 1 38.8995 33.4988 13.6963 
440 1 37.0993 35.2991 13.6963 
441 1 40.6998 33.4988 11.896 
442 1 42.5 35.2991 11.896 
443 1 42.5 33.4988 13.6963 
444 1 40.6998 35.2991 13.6963 
445 1 44.3002 33.4988 11.896 
446 1 46.1005 35.2991 11.896 
447 1 46.1005 33.4988 13.6963 
448 1 44.3002 35.2991 13.6963 
449 1 47.9007 33.4988 11.896 
450 1 49.7009 35.2991 11.896 
451 1 49.7009 33.4988 13.6963 
452 1 47.9007 35.2991 13.6963 
453 1 51.5012 33.4988 11.896 
454 1 53.3014 35.2991 11.896 
455 1 53.3014 33.4988 13.6963 
456 1 51.5012 35.2991 13.6963 
457 1 55.1016 33.4988 11.896 
458 1 56.9019 35.2991 11.896 
459 1 56.9019 33.4988 13.6963 
460 1 55.1016 35.2991 13.6963 
461 1 58.7021 33.4988 11.896 
462 1 60.5023 35.2991 11.896 
463 1 60.5023 33.4988 13.6963 
464 1 58.7021 35.2991 13.6963 
465 1 62.3026 33.4988 11.896 
466 1 64.1028 35.2991 11.896 
467 1 64.1028 33.4988 13.6963 
468 1 62.3026 35.2991 13.6963 
469 1 65.903 33.4988 11.896 
470 1 67.7033 35.2991 11.896 
471 1 67.7033 33.4988 13.6963 
472 1 65.903 35.2991 13.6963 
473 1 69.5035 33.4988 11.896 
474 1 71.3037 35.2991 11.896 
475 1 71.3037 33.4988 13.6963 
476 1 69.5035 35.2991 13.6963 
477 1 11.896 37.0993 11.896 
478 1 13.6963 38.8995 11.896 
479 1 13.6963 37.0993 13.6963 
480 1 11.896 38.8995 13.6963 
481 1 15.4965 37.0993 11.896 
482 1 17.2967 38.8995 11.896 
483 1 17.2967 37.0993 13.6963 
484 1 15.4965 38.8995 13.6963 
485 1 19.097 37.0993 11.896 
486 1 20.8972 38.8995 11.896 
487 1 20.8972 37.0993 13.6963 
488 1 19.097 38.8995 13.6963 
489 1 22.6974 37.0993 11.896 
490 1 24.4977 38.8995 11.896 
491 1 24.4977 37.0993 13.6963 
492 1 22.6974 38.8995 13.6963 
493 1 26.2979 37.0993 11.896 
494 1 28.0981 38.8995 11.896 
495 1 28.0981 37.0993 13.6963 
496 1 26.2979 38.8995 13.6963 
497 1 29.8984 37.0993 11.896 
498 1 31.6986 38.8995 11.896 
499 1 31.6986 37.0993 13.6963 
500 1 29.8984 38.8995 13.6963 
501 1 33.4988 37.0993 11.896 
502 1 35.2991 38.8995 11.896 
503 1 35.2991 37.0993 13.6963 
504 1 33.4988 38.8995 13.6963 
505 1 37.0993 37.0993 11.896 
506 1 38.8995 38.8995 11.896 
507 1 38.8995 37.0993 13.6963 
508 1 37.0993 38.8995 13.6963 
509 1 40.6998 37.0993 11.896 
510 1 42.5 38.8995 11.896 
511 1 42.5 37.0993 13.6963 
512 1 40.6998 38.8995 13.6963 
513 1 44.3002 37.0993 11.896 
514 1 46.1005 38.8995 11.896 
515 1 46.1005 37.0993 13.6963 
516 1 44.3002 38.8995 13.6963 
517 1 47.9007 37.0993 11.896 
518 1 49.7009 38.8995 11.896 
519 1 49.7009 37.0993 13.6963 
520 1 47.9007 38.8995 13.6963 
521 1 51.5012 37.0993 11.896 
522 1 53.3014 38.8995 11.896 
523 1 53.3014 37.0993 13.6963 
524 1 51.5012 38.8995 13.6963 
525 1 55.1016 37.0993 11.896 
526 1 56.9019 38.8995 11.896 
527 1 56.9019 37.0993 13.6963 
528 1 55.1016 38.8995 13.6963 
529 1 58.7021 37.0993 11.896 
530 1 60.5023 38.8995 11.896 
531 1 60.5023 37.0993 13.6963 
532 1 58.7021 38.8995 13.6963 
533 1 62.3026 37.0993 11.896 
534 1 64.1028 38.8995 11.896 
535 1 64.1028 37.0993 13.6963 
536 1 62.3026 38.8995 13.6963 
537 1 65.903 37.0993 11.896 
538 1 67.7033 38.8995 11.896 
539 1 67.7033 37.0993 13.6963 
540 1 65.903 38.8995 13.6963 
541 1 69.5035 37.0993 11.896 
542 1 71.3037 38.8995 11.896 
543 1 71.3037 37.0993 13.6963 
544 1 69.5035 38.8995 13.6963 
545 1 11.896 40.6998 11.896 
546 1 13.6963 42.5 11.896 
547 1 13.6963 40.6998 13.6963 
548 1 11.896 42.5 13.6963 
549 1 15.4965 40.6998 11.896 
550 1 17.2967 42.5 11.896 
551 1 17.2967 40.6998 13.6963 
552 1 15.4965 42.5 13.6963 
553 1 19.097 40.6998 11.896 
554 1 20.8972 42.5 11.896 
555 1 20.8972 40.6998 13.6963 
556 1 19.097 42.5 13.6963 
557 1 22.6974 40.6998 11.896 
558 1 24.4977 42.5 11.896 
559 1 24.4977 40.6998 13.6963 
560 1 22.6974 42.5 13.6963 
561 1 26.2979 40.6998 11.896 
562 1 28.0981 42.5 11.896 
563 1 28.0981 40.6998 13.6963 
564 1 26.2979 42.5 13.6963 
565 1 29.8984 40.6998 11.896 
566 1 31.6986 42.5 11.896 
567 1 31.6986 40.6998 13.6963 
568 1 29.8984 42.5 13.6963 
569 1 33.4988 40.6998 11.896 
570 1 35.2991 42.5 11.896 
571 1 35.2991 40.6998 13.6963 
572 1 33.4988 42.5 13.6963 
573 1 37.0993 40.6998 11.896 
574 1 38.8995 42.5 11.896 
575 1 38.8995 40.6998 13.6963 
576 1 37.0993 42.5 13.6963 
577 1 40.6998 40.6998 11.896 
578 1 42.5 42.5 11.896 
579 1 42.5 40.6998 13.6963 
580 1 40.6998 42.5 13.6963 
581 1 44.3002 40.6998 11.896 
582 1 46.1005 42.5 11.896 
583 1 46.1005 40.6998 13.6963 
584 1 44.3002 42.5 13.6963 
585 1 47.9007 40.6998 11.896 
586 1 49.7009 42.5 11.896 
587 1 49.7009 40.6998 13.6963 
588 1 47.9007 42.5 13.6963 
589 1 51.5012 40.6998 11.896 
590 1 53.3014 42.5 11.896 
591 1 53.3014 40.6998 13.6963 
592 1 51.5012 42.5 13.6963 
593 1 55.1016 40.6998 11.896 
594 1 56.9019 42.5 11.896 
595 1 56.9019 40.6998 13.6963 
596 1 55.1016 42.5 13.6963 
597 1 58.7021 40.6998 11.896 
598 1 60.5023 42.5 11.896 
599 1 60.5023 40.6998 13.6963 
600 1 58.7021 42.5 13.6963 
601 1 62.3026 40.6998 11.896 
602 1 64.1028 42.5 11.896 
603 1 64.1028 40.6998 13.6963 
604 1 62.3026 42.5 13.6963 
605 1 65.903 40.6998 11.896 
606 1 67.7033 42.5 11.896 
607 1 67.7033 40.6998 13.6963 
608 1 65.903 42.5 13.6963 
609 1 69.5035 40.6998 11.896 
610 1 71.3037 42.5 11.896 
611 1 71.3037 40.6998 13.6963 
612 1 69.5035 42.5 13.6963 
613 1 11.896 44.3002 11.896 
614 1 13.6963 46.1005 11.896 
615 1 13.6963 44.3002 13.6963 
616 1 11.896 46.1005 13.6963 
617 1 15.4965 44.3002 11.896 
618 1 17.2967 46.1005 11.896 
619 1 17.2967 44.3002 13.6963 
620 1 15.4965 46.1005 13.6963 
621 1 19.097 44.3002 11.896 
622 1 20.8972 46.1005 11.896 
623 1 20.8972 44.3002 13.6963 
624 1 19.097 46.1005 13.6963 
625 1 22.6974 44.3002 11.896 
626 1 24.4977 46.1005 11.896 
627 1 24.4977 44.3002 13.6963 
628 1 22.6974 46.1005 13.6963 
629 1 26.2979 44.3002 11.896 
630 1 28.0981 46.1005 11.896 
631 1 28.0981 44.3002 13.6963 
632 1 26.2979 46.1005 13.6963 
633 1 29.8984 44.3002 11.896 
634 1 31.6986 46.1005 11.896 
635 1 31.6986 44.3002 13.6963 
636 1 29.8984 46.1005 13.6963 
637 1 33.4988 44.3002 11.896 
638 1 35.2991 46.1005 11.896 
639 1 35.2991 44.3002 13.6963 
640 1 33.4988 46.1005 13.6963 
641 1 37.0993 44.3002 11.896 
642 1 38.8995 46.1005 11.896 
643 1 38.8995 44.3002 13.6963 
644 1 37.0993 46.1005 13.6963 
645 1 40.6998 44.3002 11.896 
646 1 42.5 46.1005 11.896 
647 1 42.5 44.3002 13.6963 
648 1 40.6998 46.1005 13.6963 
649 1 44.3002 44.3002 11.896 
650 1 46.1005 46.1005 11.896 
651 1 46.1005 44.3002 13.6963 
652 1 44.3002 46.1005 13.6963 
653 1 47.9007 44.3002 11.896 
654 1 49.7009 46.1005 11.896 
655 1 49.7009 44.3002 13.6963 
656 1 47.9007 46.1005 13.6963 
657 1 51.5012 44.3002 11.896 
658 1 53.3014 46.1005 11.896 
659 1 53.3014 44.3002 13.6963 
660 1 51.5012 46.1005 13.6963 
661 1 55.1016 44.3002 11.896 
662 1 56.9019 46.1005 11.896 
663 1 56.9019 44.3002 13.6963 
664 1 55.1016 46.1005 13.6963 
665 1 58.7021 44.3002 11.896 
666 1 60.5023 46.1005 11.896 
667 1 60.5023 44.3002 13.6963 
668 1 58.7021 46.1005 13.6963 
669 1 62.3026 44.3002 11.896 
670 1 64.1028 46.1005 11.896 
671 1 64.1028 44.3002 13.6963 
672 1 62.3026 46.1005 13.6963 
673 1 65.903 44.3002 11.896 
674 1 67.7033 46.1005 11.896 
675 1 67.7033 44.3002 13.6963 
676 1 65.903 46.1005 13.6963 
677 1 69.5035 44.3002 11.896 
678 1 71.3037 46.1005 11.896 
679 1 71.3037 44.3002 13.6963 
680 1 69.5035 46.1005 13.6963 
681 1 11.896 47.9007 11.896 
682 1 13.6963 49.7009 11.896 
683 1 13.6963 47.9007 13.6963 
684 1 11.896 49.7009 13.6963 
685 1 15.4965 47.9007 11.896 
686 1 17.2967 49.7009 11.896 
687 1 17.2967 47.9007 13.6963 
688 1 15.4965 49.7009 13.6963 
689 1 19.097 47.9007 11.896 
690 1 20.8972 49.7009 11.896 
691 1 20.8972 47.9007 13.6963 
692 1 19.097 49.7009 13.6963 
693 1 22.6974 47.9007 11.896 
694 1 24.4977 49.7009 11.896 
695 1 24.4977 47.9007 13.6963 
696 1 22.6974 49.7009 13.6963 
697 1 26.2979 47.9007 11.896 
698 1 28.0981 49.7009 11.896 
699 1 28.0981 47.9007 13.6963 
700 1 26.2979 49.7009 13.6963 
701 1 29.8984 47.9007 11.896 
702 1 31.6986 49.7009 11.896 
703 1 31.6986 47.9007 13.6963 
704 1 29.8984 49.7009 13.6963 
705 1 33.4988 47.9007 11.896 
706 1 35.2991 49.7009 11.896 
707 1 35.2991 47.9007 13.6963 
708 1 33.4988 49.7009 13.6963 
709 1 37.0993 47.9007 11.896 
710 1 38.8995 49.7009 11.896 
711 1 38.8995 47.9007 13.6963 
712 1 37.0993 49.7009 13.6963 
713 1 40.6998 47.9007 11.896 
714 1 42.5 49.7009 11.896 
715 1 42.5 47.9007 13.6963 
716 1 40.6998 49.7009 13.6963 
717 1 44.3002 47.9007 11.896 
718 1 46.1005 49.7009 11.896 
719 1 46.1005 47.9007 13.6963 
720 1 44.3002 49.7009 13.6963 
721 1 47.9007 47.9007 11.896 
722 1 49.7009 49.7009 11.896 
723 1 49.7009 47.9007 13.6963 
724 1 47.9007 49.7009 13.6963 
725 1 51.5012 47.9007 11.896 
726 1 53.3014 49.7009 11.896 
727 1 53.3014 47.9007 13.6963 
728 1 51.5012 49.7009 13.6963 
729 1 55.1016 47.9007 11.896 
730 1 56.9019 49.7009 11.896 
731 1 56.9019 47.9007 13.6963 
732 1 55.1016 49.7009 13.6963 
733 1 58.7021 47.9007 11.896 
734 1 60.5023 49.7009 11.896 
735 1 60.5023 47.9007 13.6963 
736 1 58.7021 49.7009 13.6963 
737 1 62.3026 47.9007 11.896 
738 1 64.1028 49.7009 11.896 
739 1 64.1028 47.9007 13.6963 
740 1 62.3026 49.7009 13.6963 
741 1 65.903 47.9007 11.896 
742 1 67.7033 49.7009 11.896 
743 1 67.7033 47.9007 13.6963 
744 1 65.903 49.7009 13.6963 
745 1 69.5035 47.9007 11.896 
746 1 71.3037 49.7009 11.896 
747 1 71.3037 47.9007 13.6963 
748 1 69.5035 49.7009 13.6963 
749 1 11.896 51.5012 11.896 
750 1 13.6963 53.3014 11.896 
751 1 13.6963 51.5012 13.6963 
752 1 11.896 53.3014 13.6963 
753 1 15.4965 51.5012 11.896 
754 1 17.2967 53.3014 11.896 
755 1 17.2967 51.5012 13.6963 
756 1 15.4965 53.3014 13.6963 
757 1 19.097 51.5012 11.896 
758 1 20.8972 53.3014 11.896 
759 1 20.8972 51.5012 13.6963 
760 1 19.097 53.3014 13.6963 
761 1 22.6974 51.5012 11.896 
762 1 24.4977 53.3014 11.896 
763 1 24.4977 51.5012 13.6963 
764 1 22.6974 53.3014 13.6963 
765 1 26.2979 51.5012 11.896 
766 1 28.0981 53.3014 11.896 
767 1 28.0981 51.5012 13.6963 
768 1 26.2979 53.3014 13.6963 
769 1 29.8984 51.5012 11.896 
770 1 31.6986 53.3014 11.896 
771 1 31.6986 51.5012 13.6963 
772 1 29.8984 53.3014 13.6963 
773 1 33.4988 51.5012 11.896 
774 1 35.2991 53.3014 11.896 
775 1 35.2991 51.5012 13.6963 
776 1 33.4988 53.3014 13.6963 
777 1 37.0993 51.5012 11.896 
778 1 38.8995 53.3014 11.896 
779 1 38.8995 51.5012 13.6963 
780 1 37.0993 53.3014 13.6963 
781 1 40.6998 51.5012 11.896 
782 1 42.5 53.3014 11.896 
783 1 42.5 51.5012 13.6963 
784 1 40.6998 53.3014 13.6963 
785 1 44.3002 51.5012 11.896 
786 1 46.1005 53.3014 11.896 
787 1 46.1005 51.5012 13.6963 
788 1 44.3002 53.3014 13.6963 
789 1 47.9007 51.5012 11.896 
790 1 49.7009 53.3014 11.896 
791 1 49.7009 51.5012 13.6963 
792 1 47.9007 53.3014 13.6963 
793 1 51.5012 51.5012 11.896 
794 1 53.3014 53.3014 11.896 
795 1 53.3014 51.5012 13.6963 
796 1 51.5012 53.3014 13.6963 
797 1 55.1016 51.5012 11.896 
798 1 56.9019 53.3014 11.896 
799 1 56.9019 51.5012 13.6963 
800 1 55.1016 53.3014 13.6963 
801 1 58.7021 51.5012 11.896 
802 1 60.5023 53.3014 11.896 
803 1 60.5023 51.5012 13.6963 
804 1 58.7021 53.3014 13.6963 
805 1 62.3026 51.5012 11.896 
806 1 64.1028 53.3014 11.896 
807 1 64.1028 51.5012 13.6963 
808 1 62.3026 53.3014 13.6963 
809 1 65.903 51.5012 11.896 
810 1 67.7033 53.3014 11.896 
811 1 67.7033 51.5012 13.6963 
812 1 65.903 53.3014 13.6963 
813 1 69.5035 51.5012 11.896 
814 1 71.3037 53.3014 11.896 
815 1 71.3037 51.5012 13.6963 
816 1 69.5035 53.3014 13.6963 
817 1 11.896 55.1016 11.896 
818 1 13.6963 56.9019 11.896 
819 1 13.6963 55.1016 13.6963 
820 1 11.896 56.9019 13.6963 
821 1 15.4965 55.1016 11.896 
822 1 17.2967 56.9019 11.896 
823 1 17.2967 55.1016 13.6963 
824 1 15.4965 56.9019 13.6963 
825 1 19.097 55.1016 11.896 
826 1 20.8972 56.9019 11.896 
827 1 20.8972 55.1016 13.6963 
828 1 19.097 56.9019 13.6963 
829 1 22.6974 55.1016 11.896 
830 1 24.4977 56.9019 11.896 
831 1 24.4977 55.1016 13.6963 
832 1 22.6974 56.9019 13.6963 
833 1 26.2979 55.1016 11.896 
834 1 28.0981 56.9019 11.896 
835 1 28.0981 55.1016 13.6963 
836 1 26.2979 56.9019 13.6963 
837 1 29.8984 55.1016 11.896 
838 1 31.6986 56.9019 11.896 
839 1 31.6986 55.1016 13.6963 
840 1 29.8984 56.9019 13.6963 
841 1 33.4988 55.1016 11.896 
842 1 35.2991 56.9019 11.896 
843 1 35.2991 55.1016 13.6963 
844 1 33.4988 56.9019 13.6963 
845 1 37.0993 55.1016 11.896 
846 1 38.8995 56.9019 11.896 
847 1 38.8995 55.1016 13.6963 
848 1 37.0993 56.9019 13.6963 
849 1 40.6998 55.1016 11.896 
850 1 42.5 56.9019 11.896 
851 1 42.5 55.1016 13.6963 
852 1 40.6998 56.9019 13.6963 
853 1 44.3002 55.1016 11.896 
854 1 46.1005 56.9019 11.896 
855 1 46.1005 55.1016 13.6963 
856 1 44.3002 56.9019 13.6963 
857 1 47.9007 55.1016 11.896 
858 1 49.7009 56.9019 11.896 
859 1 49.7009 55.1016 13.6963 
860 1 47.9007 56.9019 13.6963 
861 1 51.5012 55.1016 11.896 
862 1 53.3014 56.9019 11.896 
863 1 53.3014 55.1016 13.6963 
864 1 51.5012 56.9019 13.6963 
865 1 55.1016 55.1016 11.896 
866 1 56.9019 56.9019 11.896 
867 1 56.9019 55.1016 13.6963 
868 1 55.1016 56.9019 13.6963 
869 1 58.7021 55.1016 11.896 
870 1 60.5023 56.9019 11.896 
871 1 60.5023 55.1016 13.6963 
872 1 58.7021 56.9019 13.6963 
873 1 62.3026 55.1016 11.896 
874 1 64.1028 56.9019 11.896 
875 1 64.1028 55.1016 13.6963 
876 1 62.3026 56.9019 13.6963 
877 1 65.903 55.1016 11.896 
878 1 67.7033 56.9019 11.896 
879 1 67.7033 55.1016 13.6963 
880 1 65.903 56.9019 13.6963 
881 1 69.5035 55.1016 11.896 
882 1 71.3037 56.9019 11.896 
883 1 71.3037 55.1016 13.6963 
884 1 69.5035 56.9019 13.6963 
885 1 11.896 58.7021 11.896 
886 1 13.6963 60.5023 11.896 
887 1 13.6963 58.7021 13.6963 
888 1 11.896 60.5023 13.6963 
889 1 15.4965 58.7021 11.896 
890 1 17.2967 60.5023 11.896 
891 1 17.2967 58.7021 13.6963 
892 1 15.4965 60.5023 13.6963 
893 1 19.097 58.7021 11.896 
894 1 20.8972 60.5023 11.896 
895 1 20.8972 58.7021 13.6963 
896 1 19.097 60.5023 13.6963 
897 1 22.6974 58.7021 11.896 
898 1 24.4977 60.5023 11.896 
899 1 24.4977 58.7021 13.6963 
900 1 22.6974 60.5023 13.6963 
901 1 26.2979 58.7021 11.896 
902 1 28.0981 60.5023 11.896 
903 1 28.0981 58.7021 13.6963 
904 1 26.2979 60.5023 13.6963 
905 1 29.8984 58.7021 11.896 
906 1 31.6986 60.5023 11.896 
907 1 31.6986 58.7021 13.6963 
908 1 29.8984 60.5023 13.6963 
909 1 33.4988 58.7021 11.896 
910 1 35.2991 60.5023 11.896 
911 1 35.2991 58.7021 13.6963 
912 1 33.4988 60.5023 13.6963 
913 1 37.0993 58.7021 11.896 
914 1 38.8995 60.5023 11.896 
915 1 38.8995 58.7021 13.6963 
916 1 37.0993 60.5023 13.6963 
917 1 40.6998 58.7021 11.896 
918 1 42.5 60.5023 11.896 
919 1 42.5 58.7021 13.6963 
920 1 40.6998 60.5023 13.6963 
921 1 44.3002 58.7021 11.896 
922 1 46.1005 60.5023 11.896 
923 1 46.1005 58.7021 13.6963 
924 1 44.3002 60.5023 13.6963 
925 1 47.9007 58.7021 11.896 
926 1 49.7009 60.5023 11.896 
927 1 49.7009 58.7021 13.6963 
928 1 47.9007 60.5023 13.6963 
929 1 51.5012 58.7021 11.896 
930 1 53.3014 60.5023 11.896 
931 1 53.3014 58.7021 13.6963 
932 1 51.5012 60.5023 13.6963 
933 1 55.1016 58.7021 11.896 
934 1 56.9019 60.5023 11.896 
935 1 56.9019 58.7021 13.6963 
936 1 55.1016 60.5023 13.6963 
937 1 58.7021 58.7021 11.896 
938 1 60.5023 60.5023 11.896 
939 1 60.5023 58.7021 13.6963 
940 1 58.7021 60.5023 13.6963 
941 1 62.3026 58.7021 11.896 
942 1 64.1028 60.5023 11.896 
943 1 64.1028 58.7021 13.6963 
944 1 62.3026 60.5023 13.6963 
945 1 65.903 58.7021 11.896 
946 1 67.7033 60.5023 11.896 
947 1 67.7033 58.7021 13.6963 
948 1 65.903 60.5023 13.6963 
949 1 69.5035 58.7021 11.896 
950 1 71.3037 60.5023 11.896 
951 1 71.3037 58.7021 13.6963 
952 1 69.5035 60.5023 13.6963 
953 1 11.896 62.3026 11.896 
954 1 13.6963 64.1028 11.896 
955 1 13.6963 62.3026 13.6963 
956 1 11.896 64.1028 13.6963 
957 1 15.4965 62.3026 11.896 
958 1 17.2967 64.1028 11.896 
959 1 17.2967 62.3026 13.6963 
960 1 15.4965 64.1028 13.6963 
961 1 19.097 62.3026 11.896 
962 1 20.8972 64.1028 11.896 
963 1 20.8972 62.3026 13.6963 
964 1 19.097 64.1028 13.6963 
965 1 22.6974 62.3026 11.896 
966 1 24.4977 64.1028 11.896 
967 1 24.4977 62.3026 13.6963 
968 1 22.6974 64.1028 13.6963 
969 1 26.2979 62.3026 11.896 
970 1 28.0981 64.1028 11.896 
971 1 28.0981 62.3026 13.6963 
972 1 26.2979 64.1028 13.6963 
973 1 29.8984 62.3026 11.896 
974 1 31.6986 64.1028 11.896 
975 1 31.6986 62.3026 13.6963 
976 1 29.8984 64.1028 13.6963 
977 1 33.4988 62.3026 11.896 
978 1 35.2991 64.1028 11.896 
979 1 35.2991 62.3026 13.6963 
980 1 33.4988 64.1028 13.6963 
981 1 37.0993 62.3026 11.896 
982 1 38.8995 64.1028 11.896 
983 1 38.8995 62.3026 13.6963 
984 1 37.0993 64.1028 13.6963 
985 1 40.6998 62.3026 11.896 
986 1 42.5 64.1028 11.896 
987 1 42.5 62.3026 13.6963 
988 1 40.6998 64.1028 13.6963 
989 1 44.3002 62.3026 11.896 
990 1 46.1005 64.1028 11.896 