ITEM: TIMESTEP
90
ITEM: NUMBER OF ATOMS
19652
ITEM: BOX BOUNDS pp pp pp
1.8310290255970290e+01 6.6689709744029386e+01
3.1714353024673741e+01 1.1550996561868124e+02
2.9900578779587946e+01 1.0890383997812533e+02
ITEM: ATOMS id type xu yu zu 
1 2 18.3103 31.7144 29.9006 
2 2 19.7332 34.1789 29.9006 
3 2 19.7332 35.822 32.2242 
4 2 18.3103 33.3574 32.2242 
5 2 21.1561 31.7144 29.9006 
6 2 22.5791 34.1789 29.9006 
7 2 22.5791 35.822 32.2242 
8 2 21.1561 33.3574 32.2242 
9 2 24.002 31.7144 29.9006 
10 2 25.4249 34.1789 29.9006 
11 2 25.4249 35.822 32.2242 
12 2 24.002 33.3574 32.2242 
13 2 26.8478 31.7144 29.9006 
14 2 28.2708 34.1789 29.9006 
15 2 28.2708 35.822 32.2242 
16 2 26.8478 33.3574 32.2242 
17 2 29.6937 31.7144 29.9006 
18 2 31.1166 34.1789 29.9006 
19 2 31.1166 35.822 32.2242 
20 2 29.6937 33.3574 32.2242 
21 2 32.5395 31.7144 29.9006 
22 2 33.9625 34.1789 29.9006 
23 2 33.9625 35.822 32.2242 
24 2 32.5395 33.3574 32.2242 
25 2 35.3854 31.7144 29.9006 
26 2 36.8083 34.1789 29.9006 
27 2 36.8083 35.822 32.2242 
28 2 35.3854 33.3574 32.2242 
29 2 38.2312 31.7144 29.9006 
30 2 39.6542 34.1789 29.9006 
31 2 39.6542 35.822 32.2242 
32 2 38.2312 33.3574 32.2242 
33 2 41.0771 31.7144 29.9006 
34 2 42.5 34.1789 29.9006 
35 2 42.5 35.822 32.2242 
36 2 41.0771 33.3574 32.2242 
37 2 43.9229 31.7144 29.9006 
38 2 45.3458 34.1789 29.9006 
39 2 45.3458 35.822 32.2242 
40 2 43.9229 33.3574 32.2242 
41 2 46.7688 31.7144 29.9006 
42 2 48.1917 34.1789 29.9006 
43 2 48.1917 35.822 32.2242 
44 2 46.7688 33.3574 32.2242 
45 2 49.6146 31.7144 29.9006 
46 2 51.0375 34.1789 29.9006 
47 2 51.0375 35.822 32.2242 
48 2 49.6146 33.3574 32.2242 
49 2 52.4605 31.7144 29.9006 
50 2 53.8834 34.1789 29.9006 
51 2 53.8834 35.822 32.2242 
52 2 52.4605 33.3574 32.2242 
53 2 55.3063 31.7144 29.9006 
54 2 56.7292 34.1789 29.9006 
55 2 56.7292 35.822 32.2242 
56 2 55.3063 33.3574 32.2242 
57 2 58.1522 31.7144 29.9006 
58 2 59.5751 34.1789 29.9006 
59 2 59.5751 35.822 32.2242 
60 2 58.1522 33.3574 32.2242 
61 2 60.998 31.7144 29.9006 
62 2 62.4209 34.1789 29.9006 
63 2 62.4209 35.822 32.2242 
64 2 60.998 33.3574 32.2242 
65 2 63.8439 31.7144 29.9006 
66 2 65.2668 34.1789 29.9006 
67 2 65.2668 35.822 32.2242 
68 2 63.8439 33.3574 32.2242 
69 2 18.3103 36.6435 29.9006 
70 2 19.7332 39.1081 29.9006 
71 2 19.7332 40.7511 32.2242 
72 2 18.3103 38.2866 32.2242 
73 2 21.1561 36.6435 29.9006 
74 2 22.5791 39.1081 29.9006 
75 2 22.5791 40.7511 32.2242 
76 2 21.1561 38.2866 32.2242 
77 2 24.002 36.6435 29.9006 
78 2 25.4249 39.1081 29.9006 
79 2 25.4249 40.7511 32.2242 
80 2 24.002 38.2866 32.2242 
81 2 26.8478 36.6435 29.9006 
82 2 28.2708 39.1081 29.9006 
83 2 28.2708 40.7511 32.2242 
84 2 26.8478 38.2866 32.2242 
85 2 29.6937 36.6435 29.9006 
86 2 31.1166 39.1081 29.9006 
87 2 31.1166 40.7511 32.2242 
88 2 29.6937 38.2866 32.2242 
89 2 32.5395 36.6435 29.9006 
90 2 33.9625 39.1081 29.9006 
91 2 33.9625 40.7511 32.2242 
92 2 32.5395 38.2866 32.2242 
93 2 35.3854 36.6435 29.9006 
94 2 36.8083 39.1081 29.9006 
95 2 36.8083 40.7511 32.2242 
96 2 35.3854 38.2866 32.2242 
97 2 38.2312 36.6435 29.9006 
98 2 39.6542 39.1081 29.9006 
99 2 39.6542 40.7511 32.2242 
100 2 38.2312 38.2866 32.2242 
101 2 41.0771 36.6435 29.9006 
102 2 42.5 39.1081 29.9006 
103 2 42.5 40.7511 32.2242 
104 2 41.0771 38.2866 32.2242 
105 2 43.9229 36.6435 29.9006 
106 2 45.3458 39.1081 29.9006 
107 2 45.3458 40.7511 32.2242 
108 2 43.9229 38.2866 32.2242 
109 2 46.7688 36.6435 29.9006 
110 2 48.1917 39.1081 29.9006 
111 2 48.1917 40.7511 32.2242 
112 2 46.7688 38.2866 32.2242 
113 2 49.6146 36.6435 29.9006 
114 2 51.0375 39.1081 29.9006 
115 2 51.0375 40.7511 32.2242 
116 2 49.6146 38.2866 32.2242 
117 2 52.4605 36.6435 29.9006 
118 2 53.8834 39.1081 29.9006 
119 2 53.8834 40.7511 32.2242 
120 2 52.4605 38.2866 32.2242 
121 2 55.3063 36.6435 29.9006 
122 2 56.7292 39.1081 29.9006 
123 2 56.7292 40.7511 32.2242 
124 2 55.3063 38.2866 32.2242 
125 2 58.1522 36.6435 29.9006 
126 2 59.5751 39.1081 29.9006 
127 2 59.5751 40.7511 32.2242 
128 2 58.1522 38.2866 32.2242 
129 2 60.998 36.6435 29.9006 
130 2 62.4209 39.1081 29.9006 
131 2 62.4209 40.7511 32.2242 
132 2 60.998 38.2866 32.2242 
133 2 63.8439 36.6435 29.9006 
134 2 65.2668 39.1081 29.9006 
135 2 65.2668 40.7511 32.2242 
136 2 63.8439 38.2866 32.2242 
137 2 18.3103 41.5727 29.9006 
138 2 19.7332 44.0372 29.9006 
139 2 19.7332 45.6803 32.2242 
140 2 18.3103 43.2157 32.2242 
141 2 21.1561 41.5727 29.9006 
142 2 22.5791 44.0372 29.9006 
143 2 22.5791 45.6803 32.2242 
144 2 21.1561 43.2157 32.2242 
145 2 24.002 41.5727 29.9006 
146 2 25.4249 44.0372 29.9006 
147 2 25.4249 45.6803 32.2242 
148 2 24.002 43.2157 32.2242 
149 2 26.8478 41.5727 29.9006 
150 2 28.2708 44.0372 29.9006 
151 2 28.2708 45.6803 32.2242 
152 2 26.8478 43.2157 32.2242 
153 2 29.6937 41.5727 29.9006 
154 2 31.1166 44.0372 29.9006 
155 2 31.1166 45.6803 32.2242 
156 2 29.6937 43.2157 32.2242 
157 2 32.5395 41.5727 29.9006 
158 2 33.9625 44.0372 29.9006 
159 2 33.9625 45.6803 32.2242 
160 2 32.5395 43.2157 32.2242 
161 2 35.3854 41.5727 29.9006 
162 2 36.8083 44.0372 29.9006 
163 2 36.8083 45.6803 32.2242 
164 2 35.3854 43.2157 32.2242 
165 2 38.2312 41.5727 29.9006 
166 2 39.6542 44.0372 29.9006 
167 2 39.6542 45.6803 32.2242 
168 2 38.2312 43.2157 32.2242 
169 2 41.0771 41.5727 29.9006 
170 2 42.5 44.0372 29.9006 
171 2 42.5 45.6803 32.2242 
172 2 41.0771 43.2157 32.2242 
173 2 43.9229 41.5727 29.9006 
174 2 45.3458 44.0372 29.9006 
175 2 45.3458 45.6803 32.2242 
176 2 43.9229 43.2157 32.2242 
177 2 46.7688 41.5727 29.9006 
178 2 48.1917 44.0372 29.9006 
179 2 48.1917 45.6803 32.2242 
180 2 46.7688 43.2157 32.2242 
181 2 49.6146 41.5727 29.9006 
182 2 51.0375 44.0372 29.9006 
183 2 51.0375 45.6803 32.2242 
184 2 49.6146 43.2157 32.2242 
185 2 52.4605 41.5727 29.9006 
186 2 53.8834 44.0372 29.9006 
187 2 53.8834 45.6803 32.2242 
188 2 52.4605 43.2157 32.2242 
189 2 55.3063 41.5727 29.9006 
190 2 56.7292 44.0372 29.9006 
191 2 56.7292 45.6803 32.2242 
192 2 55.3063 43.2157 32.2242 
193 2 58.1522 41.5727 29.9006 
194 2 59.5751 44.0372 29.9006 
195 2 59.5751 45.6803 32.2242 
196 2 58.1522 43.2157 32.2242 
197 2 60.998 41.5727 29.9006 
198 2 62.4209 44.0372 29.9006 
199 2 62.4209 45.6803 32.2242 
200 2 60.998 43.2157 32.2242 
201 2 63.8439 41.5727 29.9006 
202 2 65.2668 44.0372 29.9006 
203 2 65.2668 45.6803 32.2242 
204 2 63.8439 43.2157 32.2242 
205 2 18.3103 46.5018 29.9006 
206 2 19.7332 48.9664 29.9006 
207 2 19.7332 50.6094 32.2242 
208 2 18.3103 48.1449 32.2242 
209 2 21.1561 46.5018 29.9006 
210 2 22.5791 48.9664 29.9006 
211 2 22.5791 50.6094 32.2242 
212 2 21.1561 48.1449 32.2242 
213 2 24.002 46.5018 29.9006 
214 2 25.4249 48.9664 29.9006 
215 2 25.4249 50.6094 32.2242 
216 2 24.002 48.1449 32.2242 
217 2 26.8478 46.5018 29.9006 
218 2 28.2708 48.9664 29.9006 
219 2 28.2708 50.6094 32.2242 
220 2 26.8478 48.1449 32.2242 
221 2 29.6937 46.5018 29.9006 
222 2 31.1166 48.9664 29.9006 
223 2 31.1166 50.6094 32.2242 
224 2 29.6937 48.1449 32.2242 
225 2 32.5395 46.5018 29.9006 
226 2 33.9625 48.9664 29.9006 
227 2 33.9625 50.6094 32.2242 
228 2 32.5395 48.1449 32.2242 
229 2 35.3854 46.5018 29.9006 
230 2 36.8083 48.9664 29.9006 
231 2 36.8083 50.6094 32.2242 
232 2 35.3854 48.1449 32.2242 
233 2 38.2312 46.5018 29.9006 
234 2 39.6542 48.9664 29.9006 
235 2 39.6542 50.6094 32.2242 
236 2 38.2312 48.1449 32.2242 
237 2 41.0771 46.5018 29.9006 
238 2 42.5 48.9664 29.9006 
239 2 42.5 50.6094 32.2242 
240 2 41.0771 48.1449 32.2242 
241 2 43.9229 46.5018 29.9006 
242 2 45.3458 48.9664 29.9006 
243 2 45.3458 50.6094 32.2242 
244 2 43.9229 48.1449 32.2242 
245 2 46.7688 46.5018 29.9006 
246 2 48.1917 48.9664 29.9006 
247 2 48.1917 50.6094 32.2242 
248 2 46.7688 48.1449 32.2242 
249 2 49.6146 46.5018 29.9006 
250 2 51.0375 48.9664 29.9006 
251 2 51.0375 50.6094 32.2242 
252 2 49.6146 48.1449 32.2242 
253 2 52.4605 46.5018 29.9006 
254 2 53.8834 48.9664 29.9006 
255 2 53.8834 50.6094 32.2242 
256 2 52.4605 48.1449 32.2242 
257 2 55.3063 46.5018 29.9006 
258 2 56.7292 48.9664 29.9006 
259 2 56.7292 50.6094 32.2242 
260 2 55.3063 48.1449 32.2242 
261 2 58.1522 46.5018 29.9006 
262 2 59.5751 48.9664 29.9006 
263 2 59.5751 50.6094 32.2242 
264 2 58.1522 48.1449 32.2242 
265 2 60.998 46.5018 29.9006 
266 2 62.4209 48.9664 29.9006 
267 2 62.4209 50.6094 32.2242 
268 2 60.998 48.1449 32.2242 
269 2 63.8439 46.5018 29.9006 
270 2 65.2668 48.9664 29.9006 
271 2 65.2668 50.6094 32.2242 
272 2 63.8439 48.1449 32.2242 
273 2 18.3103 51.431 29.9006 
274 2 19.7332 53.8955 29.9006 
275 2 19.7332 55.5386 32.2242 
276 2 18.3103 53.074 32.2242 
277 2 21.1561 51.431 29.9006 
278 2 22.5791 53.8955 29.9006 
279 2 22.5791 55.5386 32.2242 
280 2 21.1561 53.074 32.2242 
281 2 24.002 51.431 29.9006 
282 2 25.4249 53.8955 29.9006 
283 2 25.4249 55.5386 32.2242 
284 2 24.002 53.074 32.2242 
285 2 26.8478 51.431 29.9006 
286 2 28.2708 53.8955 29.9006 
287 2 28.2708 55.5386 32.2242 
288 2 26.8478 53.074 32.2242 
289 2 29.6937 51.431 29.9006 
290 2 31.1166 53.8955 29.9006 
291 2 31.1166 55.5386 32.2242 
292 2 29.6937 53.074 32.2242 
293 2 32.5395 51.431 29.9006 
294 2 33.9625 53.8955 29.9006 
295 2 33.9625 55.5386 32.2242 
296 2 32.5395 53.074 32.2242 
297 2 35.3854 51.431 29.9006 
298 2 36.8083 53.8955 29.9006 
299 2 36.8083 55.5386 32.2242 
300 2 35.3854 53.074 32.2242 
301 2 38.2312 51.431 29.9006 
302 2 39.6542 53.8955 29.9006 
303 2 39.6542 55.5386 32.2242 
304 2 38.2312 53.074 32.2242 
305 2 41.0771 51.431 29.9006 
306 2 42.5 53.8955 29.9006 
307 2 42.5 55.5386 32.2242 
308 2 41.0771 53.074 32.2242 
309 2 43.9229 51.431 29.9006 
310 2 45.3458 53.8955 29.9006 
311 2 45.3458 55.5386 32.2242 
312 2 43.9229 53.074 32.2242 
313 2 46.7688 51.431 29.9006 
314 2 48.1917 53.8955 29.9006 
315 2 48.1917 55.5386 32.2242 
316 2 46.7688 53.074 32.2242 
317 2 49.6146 51.431 29.9006 
318 2 51.0375 53.8955 29.9006 
319 2 51.0375 55.5386 32.2242 
320 2 49.6146 53.074 32.2242 
321 2 52.4605 51.431 29.9006 
322 2 53.8834 53.8955 29.9006 
323 2 53.8834 55.5386 32.2242 
324 2 52.4605 53.074 32.2242 
325 2 55.3063 51.431 29.9006 
326 2 56.7292 53.8955 29.9006 
327 2 56.7292 55.5386 32.2242 
328 2 55.3063 53.074 32.2242 
329 2 58.1522 51.431 29.9006 
330 2 59.5751 53.8955 29.9006 
331 2 59.5751 55.5386 32.2242 
332 2 58.1522 53.074 32.2242 
333 2 60.998 51.431 29.9006 
334 2 62.4209 53.8955 29.9006 
335 2 62.4209 55.5386 32.2242 
336 2 60.998 53.074 32.2242 
337 2 63.8439 51.431 29.9006 
338 2 65.2668 53.8955 29.9006 
339 2 65.2668 55.5386 32.2242 
340 2 63.8439 53.074 32.2242 
341 2 18.3103 56.3601 29.9006 
342 2 19.7332 58.8247 29.9006 
343 2 19.7332 60.4677 32.2242 
344 2 18.3103 58.0032 32.2242 
345 2 21.1561 56.3601 29.9006 
346 2 22.5791 58.8247 29.9006 
347 2 22.5791 60.4677 32.2242 
348 2 21.1561 58.0032 32.2242 
349 2 24.002 56.3601 29.9006 
350 2 25.4249 58.8247 29.9006 
351 2 25.4249 60.4677 32.2242 
352 2 24.002 58.0032 32.2242 
353 2 26.8478 56.3601 29.9006 
354 2 28.2708 58.8247 29.9006 
355 2 28.2708 60.4677 32.2242 
356 2 26.8478 58.0032 32.2242 
357 2 29.6937 56.3601 29.9006 
358 2 31.1166 58.8247 29.9006 
359 2 31.1166 60.4677 32.2242 
360 2 29.6937 58.0032 32.2242 
361 2 32.5395 56.3601 29.9006 
362 2 33.9625 58.8247 29.9006 
363 2 33.9625 60.4677 32.2242 
364 2 32.5395 58.0032 32.2242 
365 2 35.3854 56.3601 29.9006 
366 2 36.8083 58.8247 29.9006 
367 2 36.8083 60.4677 32.2242 
368 2 35.3854 58.0032 32.2242 
369 2 38.2312 56.3601 29.9006 
370 2 39.6542 58.8247 29.9006 
371 2 39.6542 60.4677 32.2242 
372 2 38.2312 58.0032 32.2242 
373 2 41.0771 56.3601 29.9006 
374 2 42.5 58.8247 29.9006 
375 2 42.5 60.4677 32.2242 
376 2 41.0771 58.0032 32.2242 
377 2 43.9229 56.3601 29.9006 
378 2 45.3458 58.8247 29.9006 
379 2 45.3458 60.4677 32.2242 
380 2 43.9229 58.0032 32.2242 
381 2 46.7688 56.3601 29.9006 
382 2 48.1917 58.8247 29.9006 
383 2 48.1917 60.4677 32.2242 
384 2 46.7688 58.0032 32.2242 
385 2 49.6146 56.3601 29.9006 
386 2 51.0375 58.8247 29.9006 
387 2 51.0375 60.4677 32.2242 
388 2 49.6146 58.0032 32.2242 
389 2 52.4605 56.3601 29.9006 
390 2 53.8834 58.8247 29.9006 
391 2 53.8834 60.4677 32.2242 
392 2 52.4605 58.0032 32.2242 
393 2 55.3063 56.3601 29.9006 
394 2 56.7292 58.8247 29.9006 
395 2 56.7292 60.4677 32.2242 
396 2 55.3063 58.0032 32.2242 
397 2 58.1522 56.3601 29.9006 
398 2 59.5751 58.8247 29.9006 
399 2 59.5751 60.4677 32.2242 
400 2 58.1522 58.0032 32.2242 
401 2 60.998 56.3601 29.9006 
402 2 62.4209 58.8247 29.9006 
403 2 62.4209 60.4677 32.2242 
404 2 60.998 58.0032 32.2242 
405 2 63.8439 56.3601 29.9006 
406 2 65.2668 58.8247 29.9006 
407 2 65.2668 60.4677 32.2242 
408 2 63.8439 58.0032 32.2242 
409 2 18.3103 61.2893 29.9006 
410 2 19.7332 63.7539 29.9006 
411 2 19.7332 65.3969 32.2242 
412 2 18.3103 62.9323 32.2242 
413 2 21.1561 61.2893 29.9006 
414 2 22.5791 63.7539 29.9006 
415 2 22.5791 65.3969 32.2242 
416 2 21.1561 62.9323 32.2242 
417 2 24.002 61.2893 29.9006 
418 2 25.4249 63.7539 29.9006 
419 2 25.4249 65.3969 32.2242 
420 2 24.002 62.9323 32.2242 
421 2 26.8478 61.2893 29.9006 
422 2 28.2708 63.7539 29.9006 
423 2 28.2708 65.3969 32.2242 
424 2 26.8478 62.9323 32.2242 
425 2 29.6937 61.2893 29.9006 
426 2 31.1166 63.7539 29.9006 
427 2 31.1166 65.3969 32.2242 
428 2 29.6937 62.9323 32.2242 
429 2 32.5395 61.2893 29.9006 
430 2 33.9625 63.7539 29.9006 
431 2 33.9625 65.3969 32.2242 
432 2 32.5395 62.9323 32.2242 
433 2 35.3854 61.2893 29.9006 
434 2 36.8083 63.7539 29.9006 
435 2 36.8083 65.3969 32.2242 
436 2 35.3854 62.9323 32.2242 
437 2 38.2312 61.2893 29.9006 
438 2 39.6542 63.7539 29.9006 
439 2 39.6542 65.3969 32.2242 
440 2 38.2312 62.9323 32.2242 
441 2 41.0771 61.2893 29.9006 
442 2 42.5 63.7539 29.9006 
443 2 42.5 65.3969 32.2242 
444 2 41.0771 62.9323 32.2242 
445 2 43.9229 61.2893 29.9006 
446 2 45.3458 63.7539 29.9006 
447 2 45.3458 65.3969 32.2242 
448 2 43.9229 62.9323 32.2242 
449 2 46.7688 61.2893 29.9006 
450 2 48.1917 63.7539 29.9006 
451 2 48.1917 65.3969 32.2242 
452 2 46.7688 62.9323 32.2242 
453 2 49.6146 61.2893 29.9006 
454 2 51.0375 63.7539 29.9006 
455 2 51.0375 65.3969 32.2242 
456 2 49.6146 62.9323 32.2242 
457 2 52.4605 61.2893 29.9006 
458 2 53.8834 63.7539 29.9006 
459 2 53.8834 65.3969 32.2242 
460 2 52.4605 62.9323 32.2242 
461 2 55.3063 61.2893 29.9006 
462 2 56.7292 63.7539 29.9006 
463 2 56.7292 65.3969 32.2242 
464 2 55.3063 62.9323 32.2242 
465 2 58.1522 61.2893 29.9006 
466 2 59.5751 63.7539 29.9006 
467 2 59.5751 65.3969 32.2242 
468 2 58.1522 62.9323 32.2242 
469 2 60.998 61.2893 29.9006 
470 2 62.4209 63.7539 29.9006 
471 2 62.4209 65.3969 32.2242 
472 2 60.998 62.9323 32.2242 
473 2 63.8439 61.2893 29.9006 
474 2 65.2668 63.7539 29.9006 
475 2 65.2668 65.3969 32.2242 
476 2 63.8439 62.9323 32.2242 
477 2 18.3103 66.2184 29.9006 
478 2 19.7332 68.683 29.9006 
479 2 19.7332 70.3261 32.2242 
480 2 18.3103 67.8615 32.2242 
481 2 21.1561 66.2184 29.9006 
482 2 22.5791 68.683 29.9006 
483 2 22.5791 70.3261 32.2242 
484 2 21.1561 67.8615 32.2242 
485 2 24.002 66.2184 29.9006 
486 2 25.4249 68.683 29.9006 
487 2 25.4249 70.3261 32.2242 
488 2 24.002 67.8615 32.2242 
489 2 26.8478 66.2184 29.9006 
490 2 28.2708 68.683 29.9006 
491 2 28.2708 70.3261 32.2242 
492 2 26.8478 67.8615 32.2242 
493 2 29.6937 66.2184 29.9006 
494 2 31.1166 68.683 29.9006 
495 2 31.1166 70.3261 32.2242 
496 2 29.6937 67.8615 32.2242 
497 2 32.5395 66.2184 29.9006 
498 2 33.9625 68.683 29.9006 
499 2 33.9625 70.3261 32.2242 
500 2 32.5395 67.8615 32.2242 
501 2 35.3854 66.2184 29.9006 
502 2 36.8083 68.683 29.9006 
503 2 36.8083 70.3261 32.2242 
504 2 35.3854 67.8615 32.2242 
505 2 38.2312 66.2184 29.9006 
506 2 39.6542 68.683 29.9006 
507 2 39.6542 70.3261 32.2242 
508 2 38.2312 67.8615 32.2242 
509 2 41.0771 66.2184 29.9006 
510 2 42.5 68.683 29.9006 
511 2 42.5 70.3261 32.2242 
512 2 41.0771 67.8615 32.2242 
513 2 43.9229 66.2184 29.9006 
514 2 45.3458 68.683 29.9006 
515 2 45.3458 70.3261 32.2242 
516 2 43.9229 67.8615 32.2242 
517 2 46.7688 66.2184 29.9006 
518 2 48.1917 68.683 29.9006 
519 2 48.1917 70.3261 32.2242 
520 2 46.7688 67.8615 32.2242 
521 2 49.6146 66.2184 29.9006 
522 2 51.0375 68.683 29.9006 
523 2 51.0375 70.3261 32.2242 
524 2 49.6146 67.8615 32.2242 
525 2 52.4605 66.2184 29.9006 
526 2 53.8834 68.683 29.9006 
527 2 53.8834 70.3261 32.2242 
528 2 52.4605 67.8615 32.2242 
529 2 55.3063 66.2184 29.9006 
530 2 56.7292 68.683 29.9006 
531 2 56.7292 70.3261 32.2242 
532 2 55.3063 67.8615 32.2242 
533 2 58.1522 66.2184 29.9006 
534 2 59.5751 68.683 29.9006 
535 2 59.5751 70.3261 32.2242 
536 2 58.1522 67.8615 32.2242 
537 2 60.998 66.2184 29.9006 
538 2 62.4209 68.683 29.9006 
539 2 62.4209 70.3261 32.2242 
540 2 60.998 67.8615 32.2242 
541 2 63.8439 66.2184 29.9006 
542 2 65.2668 68.683 29.9006 
543 2 65.2668 70.3261 32.2242 
544 2 63.8439 67.8615 32.2242 
545 2 18.3103 71.1476 29.9006 
546 2 19.7332 73.6122 29.9006 
547 2 19.7332 75.2552 32.2242 
548 2 18.3103 72.7906 32.2242 
549 2 21.1561 71.1476 29.9006 
550 2 22.5791 73.6122 29.9006 
551 2 22.5791 75.2552 32.2242 
552 2 21.1561 72.7906 32.2242 
553 2 24.002 71.1476 29.9006 
554 2 25.4249 73.6122 29.9006 
555 2 25.4249 75.2552 32.2242 
556 2 24.002 72.7906 32.2242 
557 2 26.8478 71.1476 29.9006 
558 2 28.2708 73.6122 29.9006 
559 2 28.2708 75.2552 32.2242 
560 2 26.8478 72.7906 32.2242 
561 2 29.6937 71.1476 29.9006 
562 2 31.1166 73.6122 29.9006 
563 2 31.1166 75.2552 32.2242 
564 2 29.6937 72.7906 32.2242 
565 2 32.5395 71.1476 29.9006 
566 2 33.9625 73.6122 29.9006 
567 2 33.9625 75.2552 32.2242 
568 2 32.5395 72.7906 32.2242 
569 2 35.3854 71.1476 29.9006 
570 2 36.8083 73.6122 29.9006 
571 2 36.8083 75.2552 32.2242 
572 2 35.3854 72.7906 32.2242 
573 2 38.2312 71.1476 29.9006 
574 2 39.6542 73.6122 29.9006 
575 2 39.6542 75.2552 32.2242 
576 2 38.2312 72.7906 32.2242 
577 2 41.0771 71.1476 29.9006 
578 2 42.5 73.6122 29.9006 
579 2 42.5 75.2552 32.2242 
580 2 41.0771 72.7906 32.2242 
581 2 43.9229 71.1476 29.9006 
582 2 45.3458 73.6122 29.9006 
583 2 45.3458 75.2552 32.2242 
584 2 43.9229 72.7906 32.2242 
585 2 46.7688 71.1476 29.9006 
586 2 48.1917 73.6122 29.9006 
587 2 48.1917 75.2552 32.2242 
588 2 46.7688 72.7906 32.2242 
589 2 49.6146 71.1476 29.9006 
590 2 51.0375 73.6122 29.9006 
591 2 51.0375 75.2552 32.2242 
592 2 49.6146 72.7906 32.2242 
593 2 52.4605 71.1476 29.9006 
594 2 53.8834 73.6122 29.9006 
595 2 53.8834 75.2552 32.2242 
596 2 52.4605 72.7906 32.2242 
597 2 55.3063 71.1476 29.9006 
598 2 56.7292 73.6122 29.9006 
599 2 56.7292 75.2552 32.2242 
600 2 55.3063 72.7906 32.2242 
601 2 58.1522 71.1476 29.9006 
602 2 59.5751 73.6122 29.9006 
603 2 59.5751 75.2552 32.2242 
604 2 58.1522 72.7906 32.2242 
605 2 60.998 71.1476 29.9006 
606 2 62.4209 73.6122 29.9006 
607 2 62.4209 75.2552 32.2242 
608 2 60.998 72.7906 32.2242 
609 2 63.8439 71.1476 29.9006 
610 2 65.2668 73.6122 29.9006 
611 2 65.2668 75.2552 32.2242 
612 2 63.8439 72.7906 32.2242 
613 2 18.3103 76.0767 29.9006 
614 2 19.7332 78.5413 29.9006 
615 2 19.7332 80.1844 32.2242 
616 2 18.3103 77.7198 32.2242 
617 2 21.1561 76.0767 29.9006 
618 2 22.5791 78.5413 29.9006 
619 2 22.5791 80.1844 32.2242 
620 2 21.1561 77.7198 32.2242 
621 2 24.002 76.0767 29.9006 
622 2 25.4249 78.5413 29.9006 
623 2 25.4249 80.1844 32.2242 
624 2 24.002 77.7198 32.2242 
625 2 26.8478 76.0767 29.9006 
626 2 28.2708 78.5413 29.9006 
627 2 28.2708 80.1844 32.2242 
628 2 26.8478 77.7198 32.2242 
629 2 29.6937 76.0767 29.9006 
630 2 31.1166 78.5413 29.9006 
631 2 31.1166 80.1844 32.2242 
632 2 29.6937 77.7198 32.2242 
633 2 32.5395 76.0767 29.9006 
634 2 33.9625 78.5413 29.9006 
635 2 33.9625 80.1844 32.2242 
636 2 32.5395 77.7198 32.2242 
637 2 35.3854 76.0767 29.9006 
638 2 36.8083 78.5413 29.9006 
639 2 36.8083 80.1844 32.2242 
640 2 35.3854 77.7198 32.2242 
641 2 38.2312 76.0767 29.9006 
642 2 39.6542 78.5413 29.9006 
643 2 39.6542 80.1844 32.2242 
644 2 38.2312 77.7198 32.2242 
645 2 41.0771 76.0767 29.9006 
646 2 42.5 78.5413 29.9006 
647 2 42.5 80.1844 32.2242 
648 2 41.0771 77.7198 32.2242 
649 2 43.9229 76.0767 29.9006 
650 2 45.3458 78.5413 29.9006 
651 2 45.3458 80.1844 32.2242 
652 2 43.9229 77.7198 32.2242 
653 2 46.7688 76.0767 29.9006 
654 2 48.1917 78.5413 29.9006 
655 2 48.1917 80.1844 32.2242 
656 2 46.7688 77.7198 32.2242 
657 2 49.6146 76.0767 29.9006 
658 2 51.0375 78.5413 29.9006 
659 2 51.0375 80.1844 32.2242 
660 2 49.6146 77.7198 32.2242 
661 2 52.4605 76.0767 29.9006 
662 2 53.8834 78.5413 29.9006 
663 2 53.8834 80.1844 32.2242 
664 2 52.4605 77.7198 32.2242 
665 2 55.3063 76.0767 29.9006 
666 2 56.7292 78.5413 29.9006 
667 2 56.7292 80.1844 32.2242 
668 2 55.3063 77.7198 32.2242 
669 2 58.1522 76.0767 29.9006 
670 2 59.5751 78.5413 29.9006 
671 2 59.5751 80.1844 32.2242 
672 2 58.1522 77.7198 32.2242 
673 2 60.998 76.0767 29.9006 
674 2 62.4209 78.5413 29.9006 
675 2 62.4209 80.1844 32.2242 
676 2 60.998 77.7198 32.2242 
677 2 63.8439 76.0767 29.9006 
678 2 65.2668 78.5413 29.9006 
679 2 65.2668 80.1844 32.2242 
680 2 63.8439 77.7198 32.2242 
681 2 18.3103 81.0059 29.9006 
682 2 19.7332 83.4705 29.9006 
683 2 19.7332 85.1135 32.2242 
684 2 18.3103 82.6489 32.2242 
685 2 21.1561 81.0059 29.9006 
686 2 22.5791 83.4705 29.9006 
687 2 22.5791 85.1135 32.2242 
688 2 21.1561 82.6489 32.2242 
689 2 24.002 81.0059 29.9006 
690 2 25.4249 83.4705 29.9006 
691 2 25.4249 85.1135 32.2242 
692 2 24.002 82.6489 32.2242 
693 2 26.8478 81.0059 29.9006 
694 2 28.2708 83.4705 29.9006 
695 2 28.2708 85.1135 32.2242 
696 2 26.8478 82.6489 32.2242 
697 2 29.6937 81.0059 29.9006 
698 2 31.1166 83.4705 29.9006 
699 2 31.1166 85.1135 32.2242 
700 2 29.6937 82.6489 32.2242 
701 2 32.5395 81.0059 29.9006 
702 2 33.9625 83.4705 29.9006 
703 2 33.9625 85.1135 32.2242 
704 2 32.5395 82.6489 32.2242 
705 2 35.3854 81.0059 29.9006 
706 2 36.8083 83.4705 29.9006 
707 2 36.8083 85.1135 32.2242 
708 2 35.3854 82.6489 32.2242 
709 2 38.2312 81.0059 29.9006 
710 2 39.6542 83.4705 29.9006 
711 2 39.6542 85.1135 32.2242 
712 2 38.2312 82.6489 32.2242 
713 2 41.0771 81.0059 29.9006 
714 2 42.5 83.4705 29.9006 
715 2 42.5 85.1135 32.2242 
716 2 41.0771 82.6489 32.2242 
717 2 43.9229 81.0059 29.9006 
718 2 45.3458 83.4705 29.9006 
719 2 45.3458 85.1135 32.2242 
720 2 43.9229 82.6489 32.2242 
721 2 46.7688 81.0059 29.9006 
722 2 48.1917 83.4705 29.9006 
723 2 48.1917 85.1135 32.2242 
724 2 46.7688 82.6489 32.2242 
725 2 49.6146 81.0059 29.9006 
726 2 51.0375 83.4705 29.9006 
727 2 51.0375 85.1135 32.2242 
728 2 49.6146 82.6489 32.2242 
729 2 52.4605 81.0059 29.9006 
730 2 53.8834 83.4705 29.9006 
731 2 53.8834 85.1135 32.2242 
732 2 52.4605 82.6489 32.2242 
733 2 55.3063 81.0059 29.9006 
734 2 56.7292 83.4705 29.9006 
735 2 56.7292 85.1135 32.2242 
736 2 55.3063 82.6489 32.2242 
737 2 58.1522 81.0059 29.9006 
738 2 59.5751 83.4705 29.9006 
739 2 59.5751 85.1135 32.2242 
740 2 58.1522 82.6489 32.2242 
741 2 60.998 81.0059 29.9006 
742 2 62.4209 83.4705 29.9006 
743 2 62.4209 85.1135 32.2242 
744 2 60.998 82.6489 32.2242 
745 2 63.8439 81.0059 29.9006 
746 2 65.2668 83.4705 29.9006 
747 2 65.2668 85.1135 32.2242 
748 2 63.8439 82.6489 32.2242 
749 2 18.3103 85.935 29.9006 
750 2 19.7332 88.3996 29.9006 
751 2 19.7332 90.0427 32.2242 
752 2 18.3103 87.5781 32.2242 
753 2 21.1561 85.935 29.9006 
754 2 22.5791 88.3996 29.9006 
755 2 22.5791 90.0427 32.2242 
756 2 21.1561 87.5781 32.2242 
757 2 24.002 85.935 29.9006 
758 2 25.4249 88.3996 29.9006 
759 2 25.4249 90.0427 32.2242 
760 2 24.002 87.5781 32.2242 
761 2 26.8478 85.935 29.9006 
762 2 28.2708 88.3996 29.9006 
763 2 28.2708 90.0427 32.2242 
764 2 26.8478 87.5781 32.2242 
765 2 29.6937 85.935 29.9006 
766 2 31.1166 88.3996 29.9006 
767 2 31.1166 90.0427 32.2242 
768 2 29.6937 87.5781 32.2242 
769 2 32.5395 85.935 29.9006 
770 2 33.9625 88.3996 29.9006 
771 2 33.9625 90.0427 32.2242 
772 2 32.5395 87.5781 32.2242 
773 2 35.3854 85.935 29.9006 
774 2 36.8083 88.3996 29.9006 
775 2 36.8083 90.0427 32.2242 
776 2 35.3854 87.5781 32.2242 
777 2 38.2312 85.935 29.9006 
778 2 39.6542 88.3996 29.9006 
779 2 39.6542 90.0427 32.2242 
780 2 38.2312 87.5781 32.2242 
781 2 41.0771 85.935 29.9006 
782 2 42.5 88.3996 29.9006 
783 2 42.5 90.0427 32.2242 
784 2 41.0771 87.5781 32.2242 
785 2 43.9229 85.935 29.9006 
786 2 45.3458 88.3996 29.9006 
787 2 45.3458 90.0427 32.2242 
788 2 43.9229 87.5781 32.2242 
789 2 46.7688 85.935 29.9006 
790 2 48.1917 88.3996 29.9006 
791 2 48.1917 90.0427 32.2242 
792 2 46.7688 87.5781 32.2242 
793 2 49.6146 85.935 29.9006 
794 2 51.0375 88.3996 29.9006 
795 2 51.0375 90.0427 32.2242 
796 2 49.6146 87.5781 32.2242 
797 2 52.4605 85.935 29.9006 
798 2 53.8834 88.3996 29.9006 
799 2 53.8834 90.0427 32.2242 
800 2 52.4605 87.5781 32.2242 
801 2 55.3063 85.935 29.9006 
802 2 56.7292 88.3996 29.9006 
803 2 56.7292 90.0427 32.2242 
804 2 55.3063 87.5781 32.2242 
805 2 58.1522 85.935 29.9006 
806 2 59.5751 88.3996 29.9006 
807 2 59.5751 90.0427 32.2242 
808 2 58.1522 87.5781 32.2242 
809 2 60.998 85.935 29.9006 
810 2 62.4209 88.3996 29.9006 
811 2 62.4209 90.0427 32.2242 
812 2 60.998 87.5781 32.2242 
813 2 63.8439 85.935 29.9006 
814 2 65.2668 88.3996 29.9006 
815 2 65.2668 90.0427 32.2242 
816 2 63.8439 87.5781 32.2242 
817 2 18.3103 90.8642 29.9006 
818 2 19.7332 93.3288 29.9006 
819 2 19.7332 94.9718 32.2242 
820 2 18.3103 92.5072 32.2242 
821 2 21.1561 90.8642 29.9006 
822 2 22.5791 93.3288 29.9006 
823 2 22.5791 94.9718 32.2242 
824 2 21.1561 92.5072 32.2242 
825 2 24.002 90.8642 29.9006 
826 2 25.4249 93.3288 29.9006 
827 2 25.4249 94.9718 32.2242 
828 2 24.002 92.5072 32.2242 
829 2 26.8478 90.8642 29.9006 
830 2 28.2708 93.3288 29.9006 
831 2 28.2708 94.9718 32.2242 
832 2 26.8478 92.5072 32.2242 
833 2 29.6937 90.8642 29.9006 
834 2 31.1166 93.3288 29.9006 
835 2 31.1166 94.9718 32.2242 
836 2 29.6937 92.5072 32.2242 
837 2 32.5395 90.8642 29.9006 
838 2 33.9625 93.3288 29.9006 
839 2 33.9625 94.9718 32.2242 
840 2 32.5395 92.5072 32.2242 
841 2 35.3854 90.8642 29.9006 
842 2 36.8083 93.3288 29.9006 
843 2 36.8083 94.9718 32.2242 
844 2 35.3854 92.5072 32.2242 
845 2 38.2312 90.8642 29.9006 
846 2 39.6542 93.3288 29.9006 
847 2 39.6542 94.9718 32.2242 
848 2 38.2312 92.5072 32.2242 
849 2 41.0771 90.8642 29.9006 
850 2 42.5 93.3288 29.9006 
851 2 42.5 94.9718 32.2242 
852 2 41.0771 92.5072 32.2242 
853 2 43.9229 90.8642 29.9006 
854 2 45.3458 93.3288 29.9006 
855 2 45.3458 94.9718 32.2242 
856 2 43.9229 92.5072 32.2242 
857 2 46.7688 90.8642 29.9006 
858 2 48.1917 93.3288 29.9006 
859 2 48.1917 94.9718 32.2242 
860 2 46.7688 92.5072 32.2242 
861 2 49.6146 90.8642 29.9006 
862 2 51.0375 93.3288 29.9006 
863 2 51.0375 94.9718 32.2242 
864 2 49.6146 92.5072 32.2242 
865 2 52.4605 90.8642 29.9006 
866 2 53.8834 93.3288 29.9006 
867 2 53.8834 94.9718 32.2242 
868 2 52.4605 92.5072 32.2242 
869 2 55.3063 90.8642 29.9006 
870 2 56.7292 93.3288 29.9006 
871 2 56.7292 94.9718 32.2242 
872 2 55.3063 92.5072 32.2242 
873 2 58.1522 90.8642 29.9006 
874 2 59.5751 93.3288 29.9006 
875 2 59.5751 94.9718 32.2242 
876 2 58.1522 92.5072 32.2242 
877 2 60.998 90.8642 29.9006 
878 2 62.4209 93.3288 29.9006 
879 2 62.4209 94.9718 32.2242 
880 2 60.998 92.5072 32.2242 
881 2 63.8439 90.8642 29.9006 
882 2 65.2668 93.3288 29.9006 
883 2 65.2668 94.9718 32.2242 
884 2 63.8439 92.5072 32.2242 
885 2 18.3103 95.7934 29.9006 
886 2 19.7332 98.2579 29.9006 
887 2 19.7332 99.901 32.2242 
888 2 18.3103 97.4364 32.2242 
889 2 21.1561 95.7934 29.9006 
890 2 22.5791 98.2579 29.9006 
891 2 22.5791 99.901 32.2242 
892 2 21.1561 97.4364 32.2242 
893 2 24.002 95.7934 29.9006 
894 2 25.4249 98.2579 29.9006 
895 2 25.4249 99.901 32.2242 
896 2 24.002 97.4364 32.2242 
897 2 26.8478 95.7934 29.9006 
898 2 28.2708 98.2579 29.9006 
899 2 28.2708 99.901 32.2242 
900 2 26.8478 97.4364 32.2242 
901 2 29.6937 95.7934 29.9006 
902 2 31.1166 98.2579 29.9006 
903 2 31.1166 99.901 32.2242 
904 2 29.6937 97.4364 32.2242 
905 2 32.5395 95.7934 29.9006 
906 2 33.9625 98.2579 29.9006 
907 2 33.9625 99.901 32.2242 
908 2 32.5395 97.4364 32.2242 
909 2 35.3854 95.7934 29.9006 
910 2 36.8083 98.2579 29.9006 
911 2 36.8083 99.901 32.2242 
912 2 35.3854 97.4364 32.2242 
913 2 38.2312 95.7934 29.9006 
914 2 39.6542 98.2579 29.9006 
915 2 39.6542 99.901 32.2242 
916 2 38.2312 97.4364 32.2242 
917 2 41.0771 95.7934 29.9006 
918 2 42.5 98.2579 29.9006 
919 2 42.5 99.901 32.2242 
920 2 41.0771 97.4364 32.2242 
921 2 43.9229 95.7934 29.9006 
922 2 45.3458 98.2579 29.9006 
923 2 45.3458 99.901 32.2242 
924 2 43.9229 97.4364 32.2242 
925 2 46.7688 95.7934 29.9006 
926 2 48.1917 98.2579 29.9006 
927 2 48.1917 99.901 32.2242 
928 2 46.7688 97.4364 32.2242 
929 2 49.6146 95.7934 29.9006 
930 2 51.0375 98.2579 29.9006 
931 2 51.0375 99.901 32.2242 
932 2 49.6146 97.4364 32.2242 
933 2 52.4605 95.7934 29.9006 
934 2 53.8834 98.2579 29.9006 
935 2 53.8834 99.901 32.2242 
936 2 52.4605 97.4364 32.2242 
937 2 55.3063 95.7934 29.9006 
938 2 56.7292 98.2579 29.9006 
939 2 56.7292 99.901 32.2242 
940 2 55.3063 97.4364 32.2242 
941 2 58.1522 95.7934 29.9006 
942 2 59.5751 98.2579 29.9006 
943 2 59.5751 99.901 32.2242 
944 2 58.1522 97.4364 32.2242 
945 2 60.998 95.7934 29.9006 
946 2 62.4209 98.2579 29.9006 
947 2 62.4209 99.901 32.2242 
948 2 60.998 97.4364 32.2242 
949 2 63.8439 95.7934 29.9006 
950 2 65.2668 98.2579 29.9006 
951 2 65.2668 99.901 32.2242 
952 2 63.8439 97.4364 32.2242 
953 2 18.3103 100.723 29.9006 
954 2 19.7332 103.187 29.9006 
955 2 19.7332 104.83 32.2242 
956 2 18.3103 102.366 32.2242 
957 2 21.1561 100.723 29.9006 
958 2 22.5791 103.187 29.9006 
959 2 22.5791 104.83 32.2242 
960 2 21.1561 102.366 32.2242 
961 2 24.002 100.723 29.9006 
962 2 25.4249 103.187 29.9006 
963 2 25.4249 104.83 32.2242 
964 2 24.002 102.366 32.2242 
965 2 26.8478 100.723 29.9006 
966 2 28.2708 103.187 29.9006 
967 2 28.2708 104.83 32.2242 
968 2 26.8478 102.366 32.2242 
969 2 29.6937 100.723 29.9006 
970 2 31.1166 103.187 29.9006 
971 2 31.1166 104.83 32.2242 