ITEM: TIMESTEP
74
ITEM: NUMBER OF ATOMS
9826
ITEM: BOX BOUNDS pp pp pp
1.5107294693912793e+01 6.9892705306086839e+01
1.5107294693912793e+01 6.9892705306086839e+01
1.5107294693912793e+01 6.9892705306086839e+01
ITEM: ATOMS id type xu yu zu 
1 1 15.1073 15.1073 15.1073 
2 1 16.7186 16.7186 16.7186 
3 1 18.33 15.1073 15.1073 
4 1 19.9413 16.7186 16.7186 
5 1 21.5526 15.1073 15.1073 
6 1 23.164 16.7186 16.7186 
7 1 24.7753 15.1073 15.1073 
8 1 26.3866 16.7186 16.7186 
9 1 27.998 15.1073 15.1073 
10 1 29.6093 16.7186 16.7186 
11 1 31.2207 15.1073 15.1073 
12 1 32.832 16.7186 16.7186 
13 1 34.4433 15.1073 15.1073 
14 1 36.0547 16.7186 16.7186 
15 1 37.666 15.1073 15.1073 
16 1 39.2773 16.7186 16.7186 
17 1 40.8887 15.1073 15.1073 
18 1 42.5 16.7186 16.7186 
19 1 44.1113 15.1073 15.1073 
20 1 45.7227 16.7186 16.7186 
21 1 47.334 15.1073 15.1073 
22 1 48.9453 16.7186 16.7186 
23 1 50.5567 15.1073 15.1073 
24 1 52.168 16.7186 16.7186 
25 1 53.7793 15.1073 15.1073 
26 1 55.3907 16.7186 16.7186 
27 1 57.002 15.1073 15.1073 
28 1 58.6134 16.7186 16.7186 
29 1 60.2247 15.1073 15.1073 
30 1 61.836 16.7186 16.7186 
31 1 63.4474 15.1073 15.1073 
32 1 65.0587 16.7186 16.7186 
33 1 66.67 15.1073 15.1073 
34 1 68.2814 16.7186 16.7186 
35 1 15.1073 18.33 15.1073 
36 1 16.7186 19.9413 16.7186 
37 1 18.33 18.33 15.1073 
38 1 19.9413 19.9413 16.7186 
39 1 21.5526 18.33 15.1073 
40 1 23.164 19.9413 16.7186 
41 1 24.7753 18.33 15.1073 
42 1 26.3866 19.9413 16.7186 
43 1 27.998 18.33 15.1073 
44 1 29.6093 19.9413 16.7186 
45 1 31.2207 18.33 15.1073 
46 1 32.832 19.9413 16.7186 
47 1 34.4433 18.33 15.1073 
48 1 36.0547 19.9413 16.7186 
49 1 37.666 18.33 15.1073 
50 1 39.2773 19.9413 16.7186 
51 1 40.8887 18.33 15.1073 
52 1 42.5 19.9413 16.7186 
53 1 44.1113 18.33 15.1073 
54 1 45.7227 19.9413 16.7186 
55 1 47.334 18.33 15.1073 
56 1 48.9453 19.9413 16.7186 
57 1 50.5567 18.33 15.1073 
58 1 52.168 19.9413 16.7186 
59 1 53.7793 18.33 15.1073 
60 1 55.3907 19.9413 16.7186 
61 1 57.002 18.33 15.1073 
62 1 58.6134 19.9413 16.7186 
63 1 60.2247 18.33 15.1073 
64 1 61.836 19.9413 16.7186 
65 1 63.4474 18.33 15.1073 
66 1 65.0587 19.9413 16.7186 
67 1 66.67 18.33 15.1073 
68 1 68.2814 19.9413 16.7186 
69 1 15.1073 21.5526 15.1073 
70 1 16.7186 23.164 16.7186 
71 1 18.33 21.5526 15.1073 
72 1 19.9413 23.164 16.7186 
73 1 21.5526 21.5526 15.1073 
74 1 23.164 23.164 16.7186 
75 1 24.7753 21.5526 15.1073 
76 1 26.3866 23.164 16.7186 
77 1 27.998 21.5526 15.1073 
78 1 29.6093 23.164 16.7186 
79 1 31.2207 21.5526 15.1073 
80 1 32.832 23.164 16.7186 
81 1 34.4433 21.5526 15.1073 
82 1 36.0547 23.164 16.7186 
83 1 37.666 21.5526 15.1073 
84 1 39.2773 23.164 16.7186 
85 1 40.8887 21.5526 15.1073 
86 1 42.5 23.164 16.7186 
87 1 44.1113 21.5526 15.1073 
88 1 45.7227 23.164 16.7186 
89 1 47.334 21.5526 15.1073 
90 1 48.9453 23.164 16.7186 
91 1 50.5567 21.5526 15.1073 
92 1 52.168 23.164 16.7186 
93 1 53.7793 21.5526 15.1073 
94 1 55.3907 23.164 16.7186 
95 1 57.002 21.5526 15.1073 
96 1 58.6134 23.164 16.7186 
97 1 60.2247 21.5526 15.1073 
98 1 61.836 23.164 16.7186 
99 1 63.4474 21.5526 15.1073 
100 1 65.0587 23.164 16.7186 
101 1 66.67 21.5526 15.1073 
102 1 68.2814 23.164 16.7186 
103 1 15.1073 24.7753 15.1073 
104 1 16.7186 26.3866 16.7186 
105 1 18.33 24.7753 15.1073 
106 1 19.9413 26.3866 16.7186 
107 1 21.5526 24.7753 15.1073 
108 1 23.164 26.3866 16.7186 
109 1 24.7753 24.7753 15.1073 
110 1 26.3866 26.3866 16.7186 
111 1 27.998 24.7753 15.1073 
112 1 29.6093 26.3866 16.7186 
113 1 31.2207 24.7753 15.1073 
114 1 32.832 26.3866 16.7186 
115 1 34.4433 24.7753 15.1073 
116 1 36.0547 26.3866 16.7186 
117 1 37.666 24.7753 15.1073 
118 1 39.2773 26.3866 16.7186 
119 1 40.8887 24.7753 15.1073 
120 1 42.5 26.3866 16.7186 
121 1 44.1113 24.7753 15.1073 
122 1 45.7227 26.3866 16.7186 
123 1 47.334 24.7753 15.1073 
124 1 48.9453 26.3866 16.7186 
125 1 50.5567 24.7753 15.1073 
126 1 52.168 26.3866 16.7186 
127 1 53.7793 24.7753 15.1073 
128 1 55.3907 26.3866 16.7186 
129 1 57.002 24.7753 15.1073 
130 1 58.6134 26.3866 16.7186 
131 1 60.2247 24.7753 15.1073 
132 1 61.836 26.3866 16.7186 
133 1 63.4474 24.7753 15.1073 
134 1 65.0587 26.3866 16.7186 
135 1 66.67 24.7753 15.1073 
136 1 68.2814 26.3866 16.7186 
137 1 15.1073 27.998 15.1073 
138 1 16.7186 29.6093 16.7186 
139 1 18.33 27.998 15.1073 
140 1 19.9413 29.6093 16.7186 
141 1 21.5526 27.998 15.1073 
142 1 23.164 29.6093 16.7186 
143 1 24.7753 27.998 15.1073 
144 1 26.3866 29.6093 16.7186 
145 1 27.998 27.998 15.1073 
146 1 29.6093 29.6093 16.7186 
147 1 31.2207 27.998 15.1073 
148 1 32.832 29.6093 16.7186 
149 1 34.4433 27.998 15.1073 
150 1 36.0547 29.6093 16.7186 
151 1 37.666 27.998 15.1073 
152 1 39.2773 29.6093 16.7186 
153 1 40.8887 27.998 15.1073 
154 1 42.5 29.6093 16.7186 
155 1 44.1113 27.998 15.1073 
156 1 45.7227 29.6093 16.7186 
157 1 47.334 27.998 15.1073 
158 1 48.9453 29.6093 16.7186 
159 1 50.5567 27.998 15.1073 
160 1 52.168 29.6093 16.7186 
161 1 53.7793 27.998 15.1073 
162 1 55.3907 29.6093 16.7186 
163 1 57.002 27.998 15.1073 
164 1 58.6134 29.6093 16.7186 
165 1 60.2247 27.998 15.1073 
166 1 61.836 29.6093 16.7186 
167 1 63.4474 27.998 15.1073 
168 1 65.0587 29.6093 16.7186 
169 1 66.67 27.998 15.1073 
170 1 68.2814 29.6093 16.7186 
171 1 15.1073 31.2207 15.1073 
172 1 16.7186 32.832 16.7186 
173 1 18.33 31.2207 15.1073 
174 1 19.9413 32.832 16.7186 
175 1 21.5526 31.2207 15.1073 
176 1 23.164 32.832 16.7186 
177 1 24.7753 31.2207 15.1073 
178 1 26.3866 32.832 16.7186 
179 1 27.998 31.2207 15.1073 
180 1 29.6093 32.832 16.7186 
181 1 31.2207 31.2207 15.1073 
182 1 32.832 32.832 16.7186 
183 1 34.4433 31.2207 15.1073 
184 1 36.0547 32.832 16.7186 
185 1 37.666 31.2207 15.1073 
186 1 39.2773 32.832 16.7186 
187 1 40.8887 31.2207 15.1073 
188 1 42.5 32.832 16.7186 
189 1 44.1113 31.2207 15.1073 
190 1 45.7227 32.832 16.7186 
191 1 47.334 31.2207 15.1073 
192 1 48.9453 32.832 16.7186 
193 1 50.5567 31.2207 15.1073 
194 1 52.168 32.832 16.7186 
195 1 53.7793 31.2207 15.1073 
196 1 55.3907 32.832 16.7186 
197 1 57.002 31.2207 15.1073 
198 1 58.6134 32.832 16.7186 
199 1 60.2247 31.2207 15.1073 
200 1 61.836 32.832 16.7186 
201 1 63.4474 31.2207 15.1073 
202 1 65.0587 32.832 16.7186 
203 1 66.67 31.2207 15.1073 
204 1 68.2814 32.832 16.7186 
205 1 15.1073 34.4433 15.1073 
206 1 16.7186 36.0547 16.7186 
207 1 18.33 34.4433 15.1073 
208 1 19.9413 36.0547 16.7186 
209 1 21.5526 34.4433 15.1073 
210 1 23.164 36.0547 16.7186 
211 1 24.7753 34.4433 15.1073 
212 1 26.3866 36.0547 16.7186 
213 1 27.998 34.4433 15.1073 
214 1 29.6093 36.0547 16.7186 
215 1 31.2207 34.4433 15.1073 
216 1 32.832 36.0547 16.7186 
217 1 34.4433 34.4433 15.1073 
218 1 36.0547 36.0547 16.7186 
219 1 37.666 34.4433 15.1073 
220 1 39.2773 36.0547 16.7186 
221 1 40.8887 34.4433 15.1073 
222 1 42.5 36.0547 16.7186 
223 1 44.1113 34.4433 15.1073 
224 1 45.7227 36.0547 16.7186 
225 1 47.334 34.4433 15.1073 
226 1 48.9453 36.0547 16.7186 
227 1 50.5567 34.4433 15.1073 
228 1 52.168 36.0547 16.7186 
229 1 53.7793 34.4433 15.1073 
230 1 55.3907 36.0547 16.7186 
231 1 57.002 34.4433 15.1073 
232 1 58.6134 36.0547 16.7186 
233 1 60.2247 34.4433 15.1073 
234 1 61.836 36.0547 16.7186 
235 1 63.4474 34.4433 15.1073 
236 1 65.0587 36.0547 16.7186 
237 1 66.67 34.4433 15.1073 
238 1 68.2814 36.0547 16.7186 
239 1 15.1073 37.666 15.1073 
240 1 16.7186 39.2773 16.7186 
241 1 18.33 37.666 15.1073 
242 1 19.9413 39.2773 16.7186 
243 1 21.5526 37.666 15.1073 
244 1 23.164 39.2773 16.7186 
245 1 24.7753 37.666 15.1073 
246 1 26.3866 39.2773 16.7186 
247 1 27.998 37.666 15.1073 
248 1 29.6093 39.2773 16.7186 
249 1 31.2207 37.666 15.1073 
250 1 32.832 39.2773 16.7186 
251 1 34.4433 37.666 15.1073 
252 1 36.0547 39.2773 16.7186 
253 1 37.666 37.666 15.1073 
254 1 39.2773 39.2773 16.7186 
255 1 40.8887 37.666 15.1073 
256 1 42.5 39.2773 16.7186 
257 1 44.1113 37.666 15.1073 
258 1 45.7227 39.2773 16.7186 
259 1 47.334 37.666 15.1073 
260 1 48.9453 39.2773 16.7186 
261 1 50.5567 37.666 15.1073 
262 1 52.168 39.2773 16.7186 
263 1 53.7793 37.666 15.1073 
264 1 55.3907 39.2773 16.7186 
265 1 57.002 37.666 15.1073 
266 1 58.6134 39.2773 16.7186 
267 1 60.2247 37.666 15.1073 
268 1 61.836 39.2773 16.7186 
269 1 63.4474 37.666 15.1073 
270 1 65.0587 39.2773 16.7186 
271 1 66.67 37.666 15.1073 
272 1 68.2814 39.2773 16.7186 
273 1 15.1073 40.8887 15.1073 
274 1 16.7186 42.5 16.7186 
275 1 18.33 40.8887 15.1073 
276 1 19.9413 42.5 16.7186 
277 1 21.5526 40.8887 15.1073 
278 1 23.164 42.5 16.7186 
279 1 24.7753 40.8887 15.1073 
280 1 26.3866 42.5 16.7186 
281 1 27.998 40.8887 15.1073 
282 1 29.6093 42.5 16.7186 
283 1 31.2207 40.8887 15.1073 
284 1 32.832 42.5 16.7186 
285 1 34.4433 40.8887 15.1073 
286 1 36.0547 42.5 16.7186 
287 1 37.666 40.8887 15.1073 
288 1 39.2773 42.5 16.7186 
289 1 40.8887 40.8887 15.1073 
290 1 42.5 42.5 16.7186 
291 1 44.1113 40.8887 15.1073 
292 1 45.7227 42.5 16.7186 
293 1 47.334 40.8887 15.1073 
294 1 48.9453 42.5 16.7186 
295 1 50.5567 40.8887 15.1073 
296 1 52.168 42.5 16.7186 
297 1 53.7793 40.8887 15.1073 
298 1 55.3907 42.5 16.7186 
299 1 57.002 40.8887 15.1073 
300 1 58.6134 42.5 16.7186 
301 1 60.2247 40.8887 15.1073 
302 1 61.836 42.5 16.7186 
303 1 63.4474 40.8887 15.1073 
304 1 65.0587 42.5 16.7186 
305 1 66.67 40.8887 15.1073 
306 1 68.2814 42.5 16.7186 
307 1 15.1073 44.1113 15.1073 
308 1 16.7186 45.7227 16.7186 
309 1 18.33 44.1113 15.1073 
310 1 19.9413 45.7227 16.7186 
311 1 21.5526 44.1113 15.1073 
312 1 23.164 45.7227 16.7186 
313 1 24.7753 44.1113 15.1073 
314 1 26.3866 45.7227 16.7186 
315 1 27.998 44.1113 15.1073 
316 1 29.6093 45.7227 16.7186 
317 1 31.2207 44.1113 15.1073 
318 1 32.832 45.7227 16.7186 
319 1 34.4433 44.1113 15.1073 
320 1 36.0547 45.7227 16.7186 
321 1 37.666 44.1113 15.1073 
322 1 39.2773 45.7227 16.7186 
323 1 40.8887 44.1113 15.1073 
324 1 42.5 45.7227 16.7186 
325 1 44.1113 44.1113 15.1073 
326 1 45.7227 45.7227 16.7186 
327 1 47.334 44.1113 15.1073 
328 1 48.9453 45.7227 16.7186 
329 1 50.5567 44.1113 15.1073 
330 1 52.168 45.7227 16.7186 
331 1 53.7793 44.1113 15.1073 
332 1 55.3907 45.7227 16.7186 
333 1 57.002 44.1113 15.1073 
334 1 58.6134 45.7227 16.7186 
335 1 60.2247 44.1113 15.1073 
336 1 61.836 45.7227 16.7186 
337 1 63.4474 44.1113 15.1073 
338 1 65.0587 45.7227 16.7186 
339 1 66.67 44.1113 15.1073 
340 1 68.2814 45.7227 16.7186 
341 1 15.1073 47.334 15.1073 
342 1 16.7186 48.9453 16.7186 
343 1 18.33 47.334 15.1073 
344 1 19.9413 48.9453 16.7186 
345 1 21.5526 47.334 15.1073 
346 1 23.164 48.9453 16.7186 
347 1 24.7753 47.334 15.1073 
348 1 26.3866 48.9453 16.7186 
349 1 27.998 47.334 15.1073 
350 1 29.6093 48.9453 16.7186 
351 1 31.2207 47.334 15.1073 
352 1 32.832 48.9453 16.7186 
353 1 34.4433 47.334 15.1073 
354 1 36.0547 48.9453 16.7186 
355 1 37.666 47.334 15.1073 
356 1 39.2773 48.9453 16.7186 
357 1 40.8887 47.334 15.1073 
358 1 42.5 48.9453 16.7186 
359 1 44.1113 47.334 15.1073 
360 1 45.7227 48.9453 16.7186 
361 1 47.334 47.334 15.1073 
362 1 48.9453 48.9453 16.7186 
363 1 50.5567 47.334 15.1073 
364 1 52.168 48.9453 16.7186 
365 1 53.7793 47.334 15.1073 
366 1 55.3907 48.9453 16.7186 
367 1 57.002 47.334 15.1073 
368 1 58.6134 48.9453 16.7186 
369 1 60.2247 47.334 15.1073 
370 1 61.836 48.9453 16.7186 
371 1 63.4474 47.334 15.1073 
372 1 65.0587 48.9453 16.7186 
373 1 66.67 47.334 15.1073 
374 1 68.2814 48.9453 16.7186 
375 1 15.1073 50.5567 15.1073 
376 1 16.7186 52.168 16.7186 
377 1 18.33 50.5567 15.1073 
378 1 19.9413 52.168 16.7186 
379 1 21.5526 50.5567 15.1073 
380 1 23.164 52.168 16.7186 
381 1 24.7753 50.5567 15.1073 
382 1 26.3866 52.168 16.7186 
383 1 27.998 50.5567 15.1073 
384 1 29.6093 52.168 16.7186 
385 1 31.2207 50.5567 15.1073 
386 1 32.832 52.168 16.7186 
387 1 34.4433 50.5567 15.1073 
388 1 36.0547 52.168 16.7186 
389 1 37.666 50.5567 15.1073 
390 1 39.2773 52.168 16.7186 
391 1 40.8887 50.5567 15.1073 
392 1 42.5 52.168 16.7186 
393 1 44.1113 50.5567 15.1073 
394 1 45.7227 52.168 16.7186 
395 1 47.334 50.5567 15.1073 
396 1 48.9453 52.168 16.7186 
397 1 50.5567 50.5567 15.1073 
398 1 52.168 52.168 16.7186 
399 1 53.7793 50.5567 15.1073 
400 1 55.3907 52.168 16.7186 
401 1 57.002 50.5567 15.1073 
402 1 58.6134 52.168 16.7186 
403 1 60.2247 50.5567 15.1073 
404 1 61.836 52.168 16.7186 
405 1 63.4474 50.5567 15.1073 
406 1 65.0587 52.168 16.7186 
407 1 66.67 50.5567 15.1073 
408 1 68.2814 52.168 16.7186 
409 1 15.1073 53.7793 15.1073 
410 1 16.7186 55.3907 16.7186 
411 1 18.33 53.7793 15.1073 
412 1 19.9413 55.3907 16.7186 
413 1 21.5526 53.7793 15.1073 
414 1 23.164 55.3907 16.7186 
415 1 24.7753 53.7793 15.1073 
416 1 26.3866 55.3907 16.7186 
417 1 27.998 53.7793 15.1073 
418 1 29.6093 55.3907 16.7186 
419 1 31.2207 53.7793 15.1073 
420 1 32.832 55.3907 16.7186 
421 1 34.4433 53.7793 15.1073 
422 1 36.0547 55.3907 16.7186 
423 1 37.666 53.7793 15.1073 
424 1 39.2773 55.3907 16.7186 
425 1 40.8887 53.7793 15.1073 
426 1 42.5 55.3907 16.7186 
427 1 44.1113 53.7793 15.1073 
428 1 45.7227 55.3907 16.7186 
429 1 47.334 53.7793 15.1073 
430 1 48.9453 55.3907 16.7186 
431 1 50.5567 53.7793 15.1073 
432 1 52.168 55.3907 16.7186 
433 1 53.7793 53.7793 15.1073 
434 1 55.3907 55.3907 16.7186 
435 1 57.002 53.7793 15.1073 
436 1 58.6134 55.3907 16.7186 
437 1 60.2247 53.7793 15.1073 
438 1 61.836 55.3907 16.7186 
439 1 63.4474 53.7793 15.1073 
440 1 65.0587 55.3907 16.7186 
441 1 66.67 53.7793 15.1073 
442 1 68.2814 55.3907 16.7186 
443 1 15.1073 57.002 15.1073 
444 1 16.7186 58.6134 16.7186 
445 1 18.33 57.002 15.1073 
446 1 19.9413 58.6134 16.7186 
447 1 21.5526 57.002 15.1073 
448 1 23.164 58.6134 16.7186 
449 1 24.7753 57.002 15.1073 
450 1 26.3866 58.6134 16.7186 
451 1 27.998 57.002 15.1073 
452 1 29.6093 58.6134 16.7186 
453 1 31.2207 57.002 15.1073 
454 1 32.832 58.6134 16.7186 
455 1 34.4433 57.002 15.1073 
456 1 36.0547 58.6134 16.7186 
457 1 37.666 57.002 15.1073 
458 1 39.2773 58.6134 16.7186 
459 1 40.8887 57.002 15.1073 
460 1 42.5 58.6134 16.7186 
461 1 44.1113 57.002 15.1073 
462 1 45.7227 58.6134 16.7186 
463 1 47.334 57.002 15.1073 
464 1 48.9453 58.6134 16.7186 
465 1 50.5567 57.002 15.1073 
466 1 52.168 58.6134 16.7186 
467 1 53.7793 57.002 15.1073 
468 1 55.3907 58.6134 16.7186 
469 1 57.002 57.002 15.1073 
470 1 58.6134 58.6134 16.7186 
471 1 60.2247 57.002 15.1073 
472 1 61.836 58.6134 16.7186 
473 1 63.4474 57.002 15.1073 
474 1 65.0587 58.6134 16.7186 
475 1 66.67 57.002 15.1073 
476 1 68.2814 58.6134 16.7186 
477 1 15.1073 60.2247 15.1073 
478 1 16.7186 61.836 16.7186 
479 1 18.33 60.2247 15.1073 
480 1 19.9413 61.836 16.7186 
481 1 21.5526 60.2247 15.1073 
482 1 23.164 61.836 16.7186 
483 1 24.7753 60.2247 15.1073 
484 1 26.3866 61.836 16.7186 
485 1 27.998 60.2247 15.1073 
486 1 29.6093 61.836 16.7186 
487 1 31.2207 60.2247 15.1073 
488 1 32.832 61.836 16.7186 
489 1 34.4433 60.2247 15.1073 
490 1 36.0547 61.836 16.7186 
491 1 37.666 60.2247 15.1073 
492 1 39.2773 61.836 16.7186 
493 1 40.8887 60.2247 15.1073 
494 1 42.5 61.836 16.7186 
495 1 44.1113 60.2247 15.1073 
496 1 45.7227 61.836 16.7186 
497 1 47.334 60.2247 15.1073 
498 1 48.9453 61.836 16.7186 
499 1 50.5567 60.2247 15.1073 
500 1 52.168 61.836 16.7186 
501 1 53.7793 60.2247 15.1073 
502 1 55.3907 61.836 16.7186 
503 1 57.002 60.2247 15.1073 
504 1 58.6134 61.836 16.7186 
505 1 60.2247 60.2247 15.1073 
506 1 61.836 61.836 16.7186 
507 1 63.4474 60.2247 15.1073 
508 1 65.0587 61.836 16.7186 
509 1 66.67 60.2247 15.1073 
510 1 68.2814 61.836 16.7186 
511 1 15.1073 63.4474 15.1073 
512 1 16.7186 65.0587 16.7186 
513 1 18.33 63.4474 15.1073 
514 1 19.9413 65.0587 16.7186 
515 1 21.5526 63.4474 15.1073 
516 1 23.164 65.0587 16.7186 
517 1 24.7753 63.4474 15.1073 
518 1 26.3866 65.0587 16.7186 
519 1 27.998 63.4474 15.1073 
520 1 29.6093 65.0587 16.7186 
521 1 31.2207 63.4474 15.1073 
522 1 32.832 65.0587 16.7186 
523 1 34.4433 63.4474 15.1073 
524 1 36.0547 65.0587 16.7186 
525 1 37.666 63.4474 15.1073 
526 1 39.2773 65.0587 16.7186 
527 1 40.8887 63.4474 15.1073 
528 1 42.5 65.0587 16.7186 
529 1 44.1113 63.4474 15.1073 
530 1 45.7227 65.0587 16.7186 
531 1 47.334 63.4474 15.1073 
532 1 48.9453 65.0587 16.7186 
533 1 50.5567 63.4474 15.1073 
534 1 52.168 65.0587 16.7186 
535 1 53.7793 63.4474 15.1073 
536 1 55.3907 65.0587 16.7186 
537 1 57.002 63.4474 15.1073 
538 1 58.6134 65.0587 16.7186 
539 1 60.2247 63.4474 15.1073 
540 1 61.836 65.0587 16.7186 
541 1 63.4474 63.4474 15.1073 
542 1 65.0587 65.0587 16.7186 
543 1 66.67 63.4474 15.1073 
544 1 68.2814 65.0587 16.7186 
545 1 15.1073 66.67 15.1073 
546 1 16.7186 68.2814 16.7186 
547 1 18.33 66.67 15.1073 
548 1 19.9413 68.2814 16.7186 
549 1 21.5526 66.67 15.1073 
550 1 23.164 68.2814 16.7186 
551 1 24.7753 66.67 15.1073 
552 1 26.3866 68.2814 16.7186 
553 1 27.998 66.67 15.1073 
554 1 29.6093 68.2814 16.7186 
555 1 31.2207 66.67 15.1073 
556 1 32.832 68.2814 16.7186 
557 1 34.4433 66.67 15.1073 
558 1 36.0547 68.2814 16.7186 
559 1 37.666 66.67 15.1073 
560 1 39.2773 68.2814 16.7186 
561 1 40.8887 66.67 15.1073 
562 1 42.5 68.2814 16.7186 
563 1 44.1113 66.67 15.1073 
564 1 45.7227 68.2814 16.7186 
565 1 47.334 66.67 15.1073 
566 1 48.9453 68.2814 16.7186 
567 1 50.5567 66.67 15.1073 
568 1 52.168 68.2814 16.7186 
569 1 53.7793 66.67 15.1073 
570 1 55.3907 68.2814 16.7186 
571 1 57.002 66.67 15.1073 
572 1 58.6134 68.2814 16.7186 
573 1 60.2247 66.67 15.1073 
574 1 61.836 68.2814 16.7186 
575 1 63.4474 66.67 15.1073 
576 1 65.0587 68.2814 16.7186 
577 1 66.67 66.67 15.1073 
578 1 68.2814 68.2814 16.7186 
579 1 15.1073 15.1073 18.33 
580 1 16.7186 16.7186 19.9413 
581 1 18.33 15.1073 18.33 
582 1 19.9413 16.7186 19.9413 
583 1 21.5526 15.1073 18.33 
584 1 23.164 16.7186 19.9413 
585 1 24.7753 15.1073 18.33 
586 1 26.3866 16.7186 19.9413 
587 1 27.998 15.1073 18.33 
588 1 29.6093 16.7186 19.9413 
589 1 31.2207 15.1073 18.33 
590 1 32.832 16.7186 19.9413 
591 1 34.4433 15.1073 18.33 
592 1 36.0547 16.7186 19.9413 
593 1 37.666 15.1073 18.33 
594 1 39.2773 16.7186 19.9413 
595 1 40.8887 15.1073 18.33 
596 1 42.5 16.7186 19.9413 
597 1 44.1113 15.1073 18.33 
598 1 45.7227 16.7186 19.9413 
599 1 47.334 15.1073 18.33 
600 1 48.9453 16.7186 19.9413 
601 1 50.5567 15.1073 18.33 
602 1 52.168 16.7186 19.9413 
603 1 53.7793 15.1073 18.33 
604 1 55.3907 16.7186 19.9413 
605 1 57.002 15.1073 18.33 
606 1 58.6134 16.7186 19.9413 
607 1 60.2247 15.1073 18.33 
608 1 61.836 16.7186 19.9413 
609 1 63.4474 15.1073 18.33 
610 1 65.0587 16.7186 19.9413 
611 1 66.67 15.1073 18.33 
612 1 68.2814 16.7186 19.9413 
613 1 15.1073 18.33 18.33 
614 1 16.7186 19.9413 19.9413 
615 1 18.33 18.33 18.33 
616 1 19.9413 19.9413 19.9413 
617 1 21.5526 18.33 18.33 
618 1 23.164 19.9413 19.9413 
619 1 24.7753 18.33 18.33 
620 1 26.3866 19.9413 19.9413 
621 1 27.998 18.33 18.33 
622 1 29.6093 19.9413 19.9413 
623 1 31.2207 18.33 18.33 
624 1 32.832 19.9413 19.9413 
625 1 34.4433 18.33 18.33 
626 1 36.0547 19.9413 19.9413 
627 1 37.666 18.33 18.33 
628 1 39.2773 19.9413 19.9413 
629 1 40.8887 18.33 18.33 
630 1 42.5 19.9413 19.9413 
631 1 44.1113 18.33 18.33 
632 1 45.7227 19.9413 19.9413 
633 1 47.334 18.33 18.33 
634 1 48.9453 19.9413 19.9413 
635 1 50.5567 18.33 18.33 
636 1 52.168 19.9413 19.9413 
637 1 53.7793 18.33 18.33 
638 1 55.3907 19.9413 19.9413 
639 1 57.002 18.33 18.33 
640 1 58.6134 19.9413 19.9413 
641 1 60.2247 18.33 18.33 
642 1 61.836 19.9413 19.9413 
643 1 63.4474 18.33 18.33 
644 1 65.0587 19.9413 19.9413 
645 1 66.67 18.33 18.33 
646 1 68.2814 19.9413 19.9413 
647 1 15.1073 21.5526 18.33 
648 1 16.7186 23.164 19.9413 
649 1 18.33 21.5526 18.33 
650 1 19.9413 23.164 19.9413 
651 1 21.5526 21.5526 18.33 
652 1 23.164 23.164 19.9413 
653 1 24.7753 21.5526 18.33 
654 1 26.3866 23.164 19.9413 
655 1 27.998 21.5526 18.33 
656 1 29.6093 23.164 19.9413 
657 1 31.2207 21.5526 18.33 
658 1 32.832 23.164 19.9413 
659 1 34.4433 21.5526 18.33 
660 1 36.0547 23.164 19.9413 
661 1 37.666 21.5526 18.33 
662 1 39.2773 23.164 19.9413 
663 1 40.8887 21.5526 18.33 
664 1 42.5 23.164 19.9413 
665 1 44.1113 21.5526 18.33 
666 1 45.7227 23.164 19.9413 
667 1 47.334 21.5526 18.33 
668 1 48.9453 23.164 19.9413 
669 1 50.5567 21.5526 18.33 
670 1 52.168 23.164 19.9413 
671 1 53.7793 21.5526 18.33 
672 1 55.3907 23.164 19.9413 
673 1 57.002 21.5526 18.33 
674 1 58.6134 23.164 19.9413 
675 1 60.2247 21.5526 18.33 
676 1 61.836 23.164 19.9413 
677 1 63.4474 21.5526 18.33 
678 1 65.0587 23.164 19.9413 
679 1 66.67 21.5526 18.33 
680 1 68.2814 23.164 19.9413 
681 1 15.1073 24.7753 18.33 
682 1 16.7186 26.3866 19.9413 
683 1 18.33 24.7753 18.33 
684 1 19.9413 26.3866 19.9413 
685 1 21.5526 24.7753 18.33 
686 1 23.164 26.3866 19.9413 
687 1 24.7753 24.7753 18.33 
688 1 26.3866 26.3866 19.9413 
689 1 27.998 24.7753 18.33 
690 1 29.6093 26.3866 19.9413 
691 1 31.2207 24.7753 18.33 
692 1 32.832 26.3866 19.9413 
693 1 34.4433 24.7753 18.33 
694 1 36.0547 26.3866 19.9413 
695 1 37.666 24.7753 18.33 
696 1 39.2773 26.3866 19.9413 
697 1 40.8887 24.7753 18.33 
698 1 42.5 26.3866 19.9413 
699 1 44.1113 24.7753 18.33 
700 1 45.7227 26.3866 19.9413 
701 1 47.334 24.7753 18.33 
702 1 48.9453 26.3866 19.9413 
703 1 50.5567 24.7753 18.33 
704 1 52.168 26.3866 19.9413 
705 1 53.7793 24.7753 18.33 
706 1 55.3907 26.3866 19.9413 
707 1 57.002 24.7753 18.33 
708 1 58.6134 26.3866 19.9413 
709 1 60.2247 24.7753 18.33 
710 1 61.836 26.3866 19.9413 
711 1 63.4474 24.7753 18.33 
712 1 65.0587 26.3866 19.9413 
713 1 66.67 24.7753 18.33 
714 1 68.2814 26.3866 19.9413 
715 1 15.1073 27.998 18.33 
716 1 16.7186 29.6093 19.9413 
717 1 18.33 27.998 18.33 
718 1 19.9413 29.6093 19.9413 
719 1 21.5526 27.998 18.33 
720 1 23.164 29.6093 19.9413 
721 1 24.7753 27.998 18.33 
722 1 26.3866 29.6093 19.9413 
723 1 27.998 27.998 18.33 
724 1 29.6093 29.6093 19.9413 
725 1 31.2207 27.998 18.33 
726 1 32.832 29.6093 19.9413 
727 1 34.4433 27.998 18.33 
728 1 36.0547 29.6093 19.9413 
729 1 37.666 27.998 18.33 
730 1 39.2773 29.6093 19.9413 
731 1 40.8887 27.998 18.33 
732 1 42.5 29.6093 19.9413 
733 1 44.1113 27.998 18.33 
734 1 45.7227 29.6093 19.9413 
735 1 47.334 27.998 18.33 
736 1 48.9453 29.6093 19.9413 
737 1 50.5567 27.998 18.33 
738 1 52.168 29.6093 19.9413 
739 1 53.7793 27.998 18.33 
740 1 55.3907 29.6093 19.9413 
741 1 57.002 27.998 18.33 
742 1 58.6134 29.6093 19.9413 
743 1 60.2247 27.998 18.33 
744 1 61.836 29.6093 19.9413 
745 1 63.4474 27.998 18.33 
746 1 65.0587 29.6093 19.9413 
747 1 66.67 27.998 18.33 
748 1 68.2814 29.6093 19.9413 
749 1 15.1073 31.2207 18.33 
750 1 16.7186 32.832 19.9413 
751 1 18.33 31.2207 18.33 
752 1 19.9413 32.832 19.9413 
753 1 21.5526 31.2207 18.33 
754 1 23.164 32.832 19.9413 
755 1 24.7753 31.2207 18.33 
756 1 26.3866 32.832 19.9413 
757 1 27.998 31.2207 18.33 
758 1 29.6093 32.832 19.9413 
759 1 31.2207 31.2207 18.33 
760 1 32.832 32.832 19.9413 
761 1 34.4433 31.2207 18.33 
762 1 36.0547 32.832 19.9413 
763 1 37.666 31.2207 18.33 
764 1 39.2773 32.832 19.9413 
765 1 40.8887 31.2207 18.33 
766 1 42.5 32.832 19.9413 
767 1 44.1113 31.2207 18.33 
768 1 45.7227 32.832 19.9413 
769 1 47.334 31.2207 18.33 
770 1 48.9453 32.832 19.9413 
771 1 50.5567 31.2207 18.33 
772 1 52.168 32.832 19.9413 
773 1 53.7793 31.2207 18.33 
774 1 55.3907 32.832 19.9413 
775 1 57.002 31.2207 18.33 
776 1 58.6134 32.832 19.9413 
777 1 60.2247 31.2207 18.33 
778 1 61.836 32.832 19.9413 
779 1 63.4474 31.2207 18.33 
780 1 65.0587 32.832 19.9413 
781 1 66.67 31.2207 18.33 
782 1 68.2814 32.832 19.9413 
783 1 15.1073 34.4433 18.33 
784 1 16.7186 36.0547 19.9413 
785 1 18.33 34.4433 18.33 
786 1 19.9413 36.0547 19.9413 
787 1 21.5526 34.4433 18.33 
788 1 23.164 36.0547 19.9413 
789 1 24.7753 34.4433 18.33 
790 1 26.3866 36.0547 19.9413 
791 1 27.998 34.4433 18.33 
792 1 29.6093 36.0547 19.9413 
793 1 31.2207 34.4433 18.33 
794 1 32.832 36.0547 19.9413 
795 1 34.4433 34.4433 18.33 
796 1 36.0547 36.0547 19.9413 
797 1 37.666 34.4433 18.33 
798 1 39.2773 36.0547 19.9413 
799 1 40.8887 34.4433 18.33 
800 1 42.5 36.0547 19.9413 
801 1 44.1113 34.4433 18.33 
802 1 45.7227 36.0547 19.9413 
803 1 47.334 34.4433 18.33 
804 1 48.9453 36.0547 19.9413 
805 1 50.5567 34.4433 18.33 
806 1 52.168 36.0547 19.9413 
807 1 53.7793 34.4433 18.33 
808 1 55.3907 36.0547 19.9413 
809 1 57.002 34.4433 18.33 
810 1 58.6134 36.0547 19.9413 
811 1 60.2247 34.4433 18.33 
812 1 61.836 36.0547 19.9413 
813 1 63.4474 34.4433 18.33 
814 1 65.0587 36.0547 19.9413 
815 1 66.67 34.4433 18.33 
816 1 68.2814 36.0547 19.9413 
817 1 15.1073 37.666 18.33 
818 1 16.7186 39.2773 19.9413 
819 1 18.33 37.666 18.33 
820 1 19.9413 39.2773 19.9413 
821 1 21.5526 37.666 18.33 
822 1 23.164 39.2773 19.9413 
823 1 24.7753 37.666 18.33 
824 1 26.3866 39.2773 19.9413 
825 1 27.998 37.666 18.33 
826 1 29.6093 39.2773 19.9413 
827 1 31.2207 37.666 18.33 
828 1 32.832 39.2773 19.9413 
829 1 34.4433 37.666 18.33 
830 1 36.0547 39.2773 19.9413 
831 1 37.666 37.666 18.33 
832 1 39.2773 39.2773 19.9413 
833 1 40.8887 37.666 18.33 
834 1 42.5 39.2773 19.9413 
835 1 44.1113 37.666 18.33 
836 1 45.7227 39.2773 19.9413 
837 1 47.334 37.666 18.33 
838 1 48.9453 39.2773 19.9413 
839 1 50.5567 37.666 18.33 
840 1 52.168 39.2773 19.9413 
841 1 53.7793 37.666 18.33 
842 1 55.3907 39.2773 19.9413 
843 1 57.002 37.666 18.33 
844 1 58.6134 39.2773 19.9413 
845 1 60.2247 37.666 18.33 
846 1 61.836 39.2773 19.9413 
847 1 63.4474 37.666 18.33 
848 1 65.0587 39.2773 19.9413 
849 1 66.67 37.666 18.33 
850 1 68.2814 39.2773 19.9413 
851 1 15.1073 40.8887 18.33 
852 1 16.7186 42.5 19.9413 
853 1 18.33 40.8887 18.33 
854 1 19.9413 42.5 19.9413 
855 1 21.5526 40.8887 18.33 
856 1 23.164 42.5 19.9413 
857 1 24.7753 40.8887 18.33 
858 1 26.3866 42.5 19.9413 
859 1 27.998 40.8887 18.33 
860 1 29.6093 42.5 19.9413 
861 1 31.2207 40.8887 18.33 
862 1 32.832 42.5 19.9413 
863 1 34.4433 40.8887 18.33 
864 1 36.0547 42.5 19.9413 
865 1 37.666 40.8887 18.33 
866 1 39.2773 42.5 19.9413 
867 1 40.8887 40.8887 18.33 
868 1 42.5 42.5 19.9413 
869 1 44.1113 40.8887 18.33 
870 1 45.7227 42.5 19.9413 
871 1 47.334 40.8887 18.33 
872 1 48.9453 42.5 19.9413 
873 1 50.5567 40.8887 18.33 
874 1 52.168 42.5 19.9413 
875 1 53.7793 40.8887 18.33 
876 1 55.3907 42.5 19.9413 
877 1 57.002 40.8887 18.33 
878 1 58.6134 42.5 19.9413 
879 1 60.2247 40.8887 18.33 
880 1 61.836 42.5 19.9413 
881 1 63.4474 40.8887 18.33 
882 1 65.0587 42.5 19.9413 
883 1 66.67 40.8887 18.33 
884 1 68.2814 42.5 19.9413 
885 1 15.1073 44.1113 18.33 
886 1 16.7186 45.7227 19.9413 
887 1 18.33 44.1113 18.33 
888 1 19.9413 45.7227 19.9413 
889 1 21.5526 44.1113 18.33 
890 1 23.164 45.7227 19.9413 
891 1 24.7753 44.1113 18.33 
892 1 26.3866 45.7227 19.9413 
893 1 27.998 44.1113 18.33 
894 1 29.6093 45.7227 19.9413 
895 1 31.2207 44.1113 18.33 
896 1 32.832 45.7227 19.9413 
897 1 34.4433 44.1113 18.33 
898 1 36.0547 45.7227 19.9413 
899 1 37.666 44.1113 18.33 
900 1 39.2773 45.7227 19.9413 
901 1 40.8887 44.1113 18.33 
902 1 42.5 45.7227 19.9413 
903 1 44.1113 44.1113 18.33 
904 1 45.7227 45.7227 19.9413 
905 1 47.334 44.1113 18.33 
906 1 48.9453 45.7227 19.9413 
907 1 50.5567 44.1113 18.33 
908 1 52.168 45.7227 19.9413 
909 1 53.7793 44.1113 18.33 
910 1 55.3907 45.7227 19.9413 
911 1 57.002 44.1113 18.33 
912 1 58.6134 45.7227 19.9413 
913 1 60.2247 44.1113 18.33 
914 1 61.836 45.7227 19.9413 
915 1 63.4474 44.1113 18.33 
916 1 65.0587 45.7227 19.9413 
917 1 66.67 44.1113 18.33 
918 1 68.2814 45.7227 19.9413 
919 1 15.1073 47.334 18.33 
920 1 16.7186 48.9453 19.9413 
921 1 18.33 47.334 18.33 
922 1 19.9413 48.9453 19.9413 
923 1 21.5526 47.334 18.33 
924 1 23.164 48.9453 19.9413 
925 1 24.7753 47.334 18.33 
926 1 26.3866 48.9453 19.9413 
927 1 27.998 47.334 18.33 
928 1 29.6093 48.9453 19.9413 
929 1 31.2207 47.334 18.33 
930 1 32.832 48.9453 19.9413 
931 1 34.4433 47.334 18.33 
932 1 36.0547 48.9453 19.9413 
933 1 37.666 47.334 18.33 
934 1 39.2773 48.9453 19.9413 
935 1 40.8887 47.334 18.33 
936 1 42.5 48.9453 19.9413 
937 1 44.1113 47.334 18.33 
938 1 45.7227 48.9453 19.9413 
939 1 47.334 47.334 18.33 
940 1 48.9453 48.9453 19.9413 
941 1 50.5567 47.334 18.33 
942 1 52.168 48.9453 19.9413 
943 1 53.7793 47.334 18.33 
944 1 55.3907 48.9453 19.9413 
945 1 57.002 47.334 18.33 
946 1 58.6134 48.9453 19.9413 
947 1 60.2247 47.334 18.33 
948 1 61.836 48.9453 19.9413 
949 1 63.4474 47.334 18.33 
950 1 65.0587 48.9453 19.9413 
951 1 66.67 47.334 18.33 
952 1 68.2814 48.9453 19.9413 
953 1 15.1073 50.5567 18.33 
954 1 16.7186 52.168 19.9413 
955 1 18.33 50.5567 18.33 
956 1 19.9413 52.168 19.9413 
957 1 21.5526 50.5567 18.33 
958 1 23.164 52.168 19.9413 
959 1 24.7753 50.5567 18.33 
960 1 26.3866 52.168 19.9413 
961 1 27.998 50.5567 18.33 
962 1 29.6093 52.168 19.9413 
963 1 31.2207 50.5567 18.33 
964 1 32.832 52.168 19.9413 
965 1 34.4433 50.5567 18.33 
966 1 36.0547 52.168 19.9413 
967 1 37.666 50.5567 18.33 
968 1 39.2773 52.168 19.9413 
969 1 40.8887 50.5567 18.33 
970 1 42.5 52.168 19.9413 
971 1 44.1113 50.5567 18.33 
972 1 45.7227 52.168 19.9413 
973 1 47.334 50.5567 18.33 
974 1 48.9453 52.168 19.9413 
975 1 50.5567 50.5567 18.33 
976 1 52.168 52.168 19.9413 
977 1 53.7793 50.5567 18.33 
978 1 55.3907 52.168 19.9413 
979 1 57.002 50.5567 18.33 
980 1 58.6134 52.168 19.9413 
981 1 60.2247 50.5567 18.33 
982 1 61.836 52.168 19.9413 
983 1 63.4474 50.5567 18.33 
984 1 65.0587 52.168 19.9413 
985 1 66.67 50.5567 18.33 
986 1 68.2814 52.168 19.9413 
987 1 15.1073 53.7793 18.33 
988 1 16.7186 55.3907 19.9413 
989 1 18.33 53.7793 18.33 
990 1 19.9413 55.3907 19.9413 
991 1 21.5526 53.7793 18.33 
992 1 23.164 55.3907 19.9413 
993 1 24.7753 53.7793 18.33 
994 1 26.3866 55.3907 19.9413 
995 1 27.998 53.7793 18.33 
996 1 29.6093 55.3907 19.9413 
997 1 31.2207 53.7793 18.33 
998 1 32.832 55.3907 19.9413 
999 1 34.4433 53.7793 18.33 
1000 1 36.0547 55.3907 19.9413 
1001 1 37.666 53.7793 18.33 
1002 1 39.2773 55.3907 19.9413 
1003 1 40.8887 53.7793 18.33 
1004 1 42.5 55.3907 19.9413 
1005 1 44.1113 53.7793 18.33 