ITEM: TIMESTEP
88
ITEM: NUMBER OF ATOMS
9826
ITEM: BOX BOUNDS pp pp pp
1.8166364106226020e+01 6.6833635893773646e+01
1.8166364106226020e+01 6.6833635893773646e+01
1.8166364106226020e+01 6.6833635893773646e+01
ITEM: ATOMS id type xu yu zu 
1 2 18.1664 18.1664 18.1664 
2 2 19.5978 19.5978 19.5978 
3 2 21.0291 18.1664 18.1664 
4 2 22.4605 19.5978 19.5978 
5 2 23.8919 18.1664 18.1664 
6 2 25.3233 19.5978 19.5978 
7 2 26.7547 18.1664 18.1664 
8 2 28.1861 19.5978 19.5978 
9 2 29.6175 18.1664 18.1664 
10 2 31.0489 19.5978 19.5978 
11 2 32.4803 18.1664 18.1664 
12 2 33.9117 19.5978 19.5978 
13 2 35.343 18.1664 18.1664 
14 2 36.7744 19.5978 19.5978 
15 2 38.2058 18.1664 18.1664 
16 2 39.6372 19.5978 19.5978 
17 2 41.0686 18.1664 18.1664 
18 2 42.5 19.5978 19.5978 
19 2 43.9314 18.1664 18.1664 
20 2 45.3628 19.5978 19.5978 
21 2 46.7942 18.1664 18.1664 
22 2 48.2256 19.5978 19.5978 
23 2 49.657 18.1664 18.1664 
24 2 51.0883 19.5978 19.5978 
25 2 52.5197 18.1664 18.1664 
26 2 53.9511 19.5978 19.5978 
27 2 55.3825 18.1664 18.1664 
28 2 56.8139 19.5978 19.5978 
29 2 58.2453 18.1664 18.1664 
30 2 59.6767 19.5978 19.5978 
31 2 61.1081 18.1664 18.1664 
32 2 62.5395 19.5978 19.5978 
33 2 63.9709 18.1664 18.1664 
34 2 65.4022 19.5978 19.5978 
35 2 18.1664 21.0291 18.1664 
36 2 19.5978 22.4605 19.5978 
37 2 21.0291 21.0291 18.1664 
38 2 22.4605 22.4605 19.5978 
39 2 23.8919 21.0291 18.1664 
40 2 25.3233 22.4605 19.5978 
41 2 26.7547 21.0291 18.1664 
42 2 28.1861 22.4605 19.5978 
43 2 29.6175 21.0291 18.1664 
44 2 31.0489 22.4605 19.5978 
45 2 32.4803 21.0291 18.1664 
46 2 33.9117 22.4605 19.5978 
47 2 35.343 21.0291 18.1664 
48 2 36.7744 22.4605 19.5978 
49 2 38.2058 21.0291 18.1664 
50 2 39.6372 22.4605 19.5978 
51 2 41.0686 21.0291 18.1664 
52 2 42.5 22.4605 19.5978 
53 2 43.9314 21.0291 18.1664 
54 2 45.3628 22.4605 19.5978 
55 2 46.7942 21.0291 18.1664 
56 2 48.2256 22.4605 19.5978 
57 2 49.657 21.0291 18.1664 
58 2 51.0883 22.4605 19.5978 
59 2 52.5197 21.0291 18.1664 
60 2 53.9511 22.4605 19.5978 
61 2 55.3825 21.0291 18.1664 
62 2 56.8139 22.4605 19.5978 
63 2 58.2453 21.0291 18.1664 
64 2 59.6767 22.4605 19.5978 
65 2 61.1081 21.0291 18.1664 
66 2 62.5395 22.4605 19.5978 
67 2 63.9709 21.0291 18.1664 
68 2 65.4022 22.4605 19.5978 
69 2 18.1664 23.8919 18.1664 
70 2 19.5978 25.3233 19.5978 
71 2 21.0291 23.8919 18.1664 
72 2 22.4605 25.3233 19.5978 
73 2 23.8919 23.8919 18.1664 
74 2 25.3233 25.3233 19.5978 
75 2 26.7547 23.8919 18.1664 
76 2 28.1861 25.3233 19.5978 
77 2 29.6175 23.8919 18.1664 
78 2 31.0489 25.3233 19.5978 
79 2 32.4803 23.8919 18.1664 
80 2 33.9117 25.3233 19.5978 
81 2 35.343 23.8919 18.1664 
82 2 36.7744 25.3233 19.5978 
83 2 38.2058 23.8919 18.1664 
84 2 39.6372 25.3233 19.5978 
85 2 41.0686 23.8919 18.1664 
86 2 42.5 25.3233 19.5978 
87 2 43.9314 23.8919 18.1664 
88 2 45.3628 25.3233 19.5978 
89 2 46.7942 23.8919 18.1664 
90 2 48.2256 25.3233 19.5978 
91 2 49.657 23.8919 18.1664 
92 2 51.0883 25.3233 19.5978 
93 2 52.5197 23.8919 18.1664 
94 2 53.9511 25.3233 19.5978 
95 2 55.3825 23.8919 18.1664 
96 2 56.8139 25.3233 19.5978 
97 2 58.2453 23.8919 18.1664 
98 2 59.6767 25.3233 19.5978 
99 2 61.1081 23.8919 18.1664 
100 2 62.5395 25.3233 19.5978 
101 2 63.9709 23.8919 18.1664 
102 2 65.4022 25.3233 19.5978 
103 2 18.1664 26.7547 18.1664 
104 2 19.5978 28.1861 19.5978 
105 2 21.0291 26.7547 18.1664 
106 2 22.4605 28.1861 19.5978 
107 2 23.8919 26.7547 18.1664 
108 2 25.3233 28.1861 19.5978 
109 2 26.7547 26.7547 18.1664 
110 2 28.1861 28.1861 19.5978 
111 2 29.6175 26.7547 18.1664 
112 2 31.0489 28.1861 19.5978 
113 2 32.4803 26.7547 18.1664 
114 2 33.9117 28.1861 19.5978 
115 2 35.343 26.7547 18.1664 
116 2 36.7744 28.1861 19.5978 
117 2 38.2058 26.7547 18.1664 
118 2 39.6372 28.1861 19.5978 
119 2 41.0686 26.7547 18.1664 
120 2 42.5 28.1861 19.5978 
121 2 43.9314 26.7547 18.1664 
122 2 45.3628 28.1861 19.5978 
123 2 46.7942 26.7547 18.1664 
124 2 48.2256 28.1861 19.5978 
125 2 49.657 26.7547 18.1664 
126 2 51.0883 28.1861 19.5978 
127 2 52.5197 26.7547 18.1664 
128 2 53.9511 28.1861 19.5978 
129 2 55.3825 26.7547 18.1664 
130 2 56.8139 28.1861 19.5978 
131 2 58.2453 26.7547 18.1664 
132 2 59.6767 28.1861 19.5978 
133 2 61.1081 26.7547 18.1664 
134 2 62.5395 28.1861 19.5978 
135 2 63.9709 26.7547 18.1664 
136 2 65.4022 28.1861 19.5978 
137 2 18.1664 29.6175 18.1664 
138 2 19.5978 31.0489 19.5978 
139 2 21.0291 29.6175 18.1664 
140 2 22.4605 31.0489 19.5978 
141 2 23.8919 29.6175 18.1664 
142 2 25.3233 31.0489 19.5978 
143 2 26.7547 29.6175 18.1664 
144 2 28.1861 31.0489 19.5978 
145 2 29.6175 29.6175 18.1664 
146 2 31.0489 31.0489 19.5978 
147 2 32.4803 29.6175 18.1664 
148 2 33.9117 31.0489 19.5978 
149 2 35.343 29.6175 18.1664 
150 2 36.7744 31.0489 19.5978 
151 2 38.2058 29.6175 18.1664 
152 2 39.6372 31.0489 19.5978 
153 2 41.0686 29.6175 18.1664 
154 2 42.5 31.0489 19.5978 
155 2 43.9314 29.6175 18.1664 
156 2 45.3628 31.0489 19.5978 
157 2 46.7942 29.6175 18.1664 
158 2 48.2256 31.0489 19.5978 
159 2 49.657 29.6175 18.1664 
160 2 51.0883 31.0489 19.5978 
161 2 52.5197 29.6175 18.1664 
162 2 53.9511 31.0489 19.5978 
163 2 55.3825 29.6175 18.1664 
164 2 56.8139 31.0489 19.5978 
165 2 58.2453 29.6175 18.1664 
166 2 59.6767 31.0489 19.5978 
167 2 61.1081 29.6175 18.1664 
168 2 62.5395 31.0489 19.5978 
169 2 63.9709 29.6175 18.1664 
170 2 65.4022 31.0489 19.5978 
171 2 18.1664 32.4803 18.1664 
172 2 19.5978 33.9117 19.5978 
173 2 21.0291 32.4803 18.1664 
174 2 22.4605 33.9117 19.5978 
175 2 23.8919 32.4803 18.1664 
176 2 25.3233 33.9117 19.5978 
177 2 26.7547 32.4803 18.1664 
178 2 28.1861 33.9117 19.5978 
179 2 29.6175 32.4803 18.1664 
180 2 31.0489 33.9117 19.5978 
181 2 32.4803 32.4803 18.1664 
182 2 33.9117 33.9117 19.5978 
183 2 35.343 32.4803 18.1664 
184 2 36.7744 33.9117 19.5978 
185 2 38.2058 32.4803 18.1664 
186 2 39.6372 33.9117 19.5978 
187 2 41.0686 32.4803 18.1664 
188 2 42.5 33.9117 19.5978 
189 2 43.9314 32.4803 18.1664 
190 2 45.3628 33.9117 19.5978 
191 2 46.7942 32.4803 18.1664 
192 2 48.2256 33.9117 19.5978 
193 2 49.657 32.4803 18.1664 
194 2 51.0883 33.9117 19.5978 
195 2 52.5197 32.4803 18.1664 
196 2 53.9511 33.9117 19.5978 
197 2 55.3825 32.4803 18.1664 
198 2 56.8139 33.9117 19.5978 
199 2 58.2453 32.4803 18.1664 
200 2 59.6767 33.9117 19.5978 
201 2 61.1081 32.4803 18.1664 
202 2 62.5395 33.9117 19.5978 
203 2 63.9709 32.4803 18.1664 
204 2 65.4022 33.9117 19.5978 
205 2 18.1664 35.343 18.1664 
206 2 19.5978 36.7744 19.5978 
207 2 21.0291 35.343 18.1664 
208 2 22.4605 36.7744 19.5978 
209 2 23.8919 35.343 18.1664 
210 2 25.3233 36.7744 19.5978 
211 2 26.7547 35.343 18.1664 
212 2 28.1861 36.7744 19.5978 
213 2 29.6175 35.343 18.1664 
214 2 31.0489 36.7744 19.5978 
215 2 32.4803 35.343 18.1664 
216 2 33.9117 36.7744 19.5978 
217 2 35.343 35.343 18.1664 
218 2 36.7744 36.7744 19.5978 
219 2 38.2058 35.343 18.1664 
220 2 39.6372 36.7744 19.5978 
221 2 41.0686 35.343 18.1664 
222 2 42.5 36.7744 19.5978 
223 2 43.9314 35.343 18.1664 
224 2 45.3628 36.7744 19.5978 
225 2 46.7942 35.343 18.1664 
226 2 48.2256 36.7744 19.5978 
227 2 49.657 35.343 18.1664 
228 2 51.0883 36.7744 19.5978 
229 2 52.5197 35.343 18.1664 
230 2 53.9511 36.7744 19.5978 
231 2 55.3825 35.343 18.1664 
232 2 56.8139 36.7744 19.5978 
233 2 58.2453 35.343 18.1664 
234 2 59.6767 36.7744 19.5978 
235 2 61.1081 35.343 18.1664 
236 2 62.5395 36.7744 19.5978 
237 2 63.9709 35.343 18.1664 
238 2 65.4022 36.7744 19.5978 
239 2 18.1664 38.2058 18.1664 
240 2 19.5978 39.6372 19.5978 
241 2 21.0291 38.2058 18.1664 
242 2 22.4605 39.6372 19.5978 
243 2 23.8919 38.2058 18.1664 
244 2 25.3233 39.6372 19.5978 
245 2 26.7547 38.2058 18.1664 
246 2 28.1861 39.6372 19.5978 
247 2 29.6175 38.2058 18.1664 
248 2 31.0489 39.6372 19.5978 
249 2 32.4803 38.2058 18.1664 
250 2 33.9117 39.6372 19.5978 
251 2 35.343 38.2058 18.1664 
252 2 36.7744 39.6372 19.5978 
253 2 38.2058 38.2058 18.1664 
254 2 39.6372 39.6372 19.5978 
255 2 41.0686 38.2058 18.1664 
256 2 42.5 39.6372 19.5978 
257 2 43.9314 38.2058 18.1664 
258 2 45.3628 39.6372 19.5978 
259 2 46.7942 38.2058 18.1664 
260 2 48.2256 39.6372 19.5978 
261 2 49.657 38.2058 18.1664 
262 2 51.0883 39.6372 19.5978 
263 2 52.5197 38.2058 18.1664 
264 2 53.9511 39.6372 19.5978 
265 2 55.3825 38.2058 18.1664 
266 2 56.8139 39.6372 19.5978 
267 2 58.2453 38.2058 18.1664 
268 2 59.6767 39.6372 19.5978 
269 2 61.1081 38.2058 18.1664 
270 2 62.5395 39.6372 19.5978 
271 2 63.9709 38.2058 18.1664 
272 2 65.4022 39.6372 19.5978 
273 2 18.1664 41.0686 18.1664 
274 2 19.5978 42.5 19.5978 
275 2 21.0291 41.0686 18.1664 
276 2 22.4605 42.5 19.5978 
277 2 23.8919 41.0686 18.1664 
278 2 25.3233 42.5 19.5978 
279 2 26.7547 41.0686 18.1664 
280 2 28.1861 42.5 19.5978 
281 2 29.6175 41.0686 18.1664 
282 2 31.0489 42.5 19.5978 
283 2 32.4803 41.0686 18.1664 
284 2 33.9117 42.5 19.5978 
285 2 35.343 41.0686 18.1664 
286 2 36.7744 42.5 19.5978 
287 2 38.2058 41.0686 18.1664 
288 2 39.6372 42.5 19.5978 
289 2 41.0686 41.0686 18.1664 
290 2 42.5 42.5 19.5978 
291 2 43.9314 41.0686 18.1664 
292 2 45.3628 42.5 19.5978 
293 2 46.7942 41.0686 18.1664 
294 2 48.2256 42.5 19.5978 
295 2 49.657 41.0686 18.1664 
296 2 51.0883 42.5 19.5978 
297 2 52.5197 41.0686 18.1664 
298 2 53.9511 42.5 19.5978 
299 2 55.3825 41.0686 18.1664 
300 2 56.8139 42.5 19.5978 
301 2 58.2453 41.0686 18.1664 
302 2 59.6767 42.5 19.5978 
303 2 61.1081 41.0686 18.1664 
304 2 62.5395 42.5 19.5978 
305 2 63.9709 41.0686 18.1664 
306 2 65.4022 42.5 19.5978 
307 2 18.1664 43.9314 18.1664 
308 2 19.5978 45.3628 19.5978 
309 2 21.0291 43.9314 18.1664 
310 2 22.4605 45.3628 19.5978 
311 2 23.8919 43.9314 18.1664 
312 2 25.3233 45.3628 19.5978 
313 2 26.7547 43.9314 18.1664 
314 2 28.1861 45.3628 19.5978 
315 2 29.6175 43.9314 18.1664 
316 2 31.0489 45.3628 19.5978 
317 2 32.4803 43.9314 18.1664 
318 2 33.9117 45.3628 19.5978 
319 2 35.343 43.9314 18.1664 
320 2 36.7744 45.3628 19.5978 
321 2 38.2058 43.9314 18.1664 
322 2 39.6372 45.3628 19.5978 
323 2 41.0686 43.9314 18.1664 
324 2 42.5 45.3628 19.5978 
325 2 43.9314 43.9314 18.1664 
326 2 45.3628 45.3628 19.5978 
327 2 46.7942 43.9314 18.1664 
328 2 48.2256 45.3628 19.5978 
329 2 49.657 43.9314 18.1664 
330 2 51.0883 45.3628 19.5978 
331 2 52.5197 43.9314 18.1664 
332 2 53.9511 45.3628 19.5978 
333 2 55.3825 43.9314 18.1664 
334 2 56.8139 45.3628 19.5978 
335 2 58.2453 43.9314 18.1664 
336 2 59.6767 45.3628 19.5978 
337 2 61.1081 43.9314 18.1664 
338 2 62.5395 45.3628 19.5978 
339 2 63.9709 43.9314 18.1664 
340 2 65.4022 45.3628 19.5978 
341 2 18.1664 46.7942 18.1664 
342 2 19.5978 48.2256 19.5978 
343 2 21.0291 46.7942 18.1664 
344 2 22.4605 48.2256 19.5978 
345 2 23.8919 46.7942 18.1664 
346 2 25.3233 48.2256 19.5978 
347 2 26.7547 46.7942 18.1664 
348 2 28.1861 48.2256 19.5978 
349 2 29.6175 46.7942 18.1664 
350 2 31.0489 48.2256 19.5978 
351 2 32.4803 46.7942 18.1664 
352 2 33.9117 48.2256 19.5978 
353 2 35.343 46.7942 18.1664 
354 2 36.7744 48.2256 19.5978 
355 2 38.2058 46.7942 18.1664 
356 2 39.6372 48.2256 19.5978 
357 2 41.0686 46.7942 18.1664 
358 2 42.5 48.2256 19.5978 
359 2 43.9314 46.7942 18.1664 
360 2 45.3628 48.2256 19.5978 
361 2 46.7942 46.7942 18.1664 
362 2 48.2256 48.2256 19.5978 
363 2 49.657 46.7942 18.1664 
364 2 51.0883 48.2256 19.5978 
365 2 52.5197 46.7942 18.1664 
366 2 53.9511 48.2256 19.5978 
367 2 55.3825 46.7942 18.1664 
368 2 56.8139 48.2256 19.5978 
369 2 58.2453 46.7942 18.1664 
370 2 59.6767 48.2256 19.5978 
371 2 61.1081 46.7942 18.1664 
372 2 62.5395 48.2256 19.5978 
373 2 63.9709 46.7942 18.1664 
374 2 65.4022 48.2256 19.5978 
375 2 18.1664 49.657 18.1664 
376 2 19.5978 51.0883 19.5978 
377 2 21.0291 49.657 18.1664 
378 2 22.4605 51.0883 19.5978 
379 2 23.8919 49.657 18.1664 
380 2 25.3233 51.0883 19.5978 
381 2 26.7547 49.657 18.1664 
382 2 28.1861 51.0883 19.5978 
383 2 29.6175 49.657 18.1664 
384 2 31.0489 51.0883 19.5978 
385 2 32.4803 49.657 18.1664 
386 2 33.9117 51.0883 19.5978 
387 2 35.343 49.657 18.1664 
388 2 36.7744 51.0883 19.5978 
389 2 38.2058 49.657 18.1664 
390 2 39.6372 51.0883 19.5978 
391 2 41.0686 49.657 18.1664 
392 2 42.5 51.0883 19.5978 
393 2 43.9314 49.657 18.1664 
394 2 45.3628 51.0883 19.5978 
395 2 46.7942 49.657 18.1664 
396 2 48.2256 51.0883 19.5978 
397 2 49.657 49.657 18.1664 
398 2 51.0883 51.0883 19.5978 
399 2 52.5197 49.657 18.1664 
400 2 53.9511 51.0883 19.5978 
401 2 55.3825 49.657 18.1664 
402 2 56.8139 51.0883 19.5978 
403 2 58.2453 49.657 18.1664 
404 2 59.6767 51.0883 19.5978 
405 2 61.1081 49.657 18.1664 
406 2 62.5395 51.0883 19.5978 
407 2 63.9709 49.657 18.1664 
408 2 65.4022 51.0883 19.5978 
409 2 18.1664 52.5197 18.1664 
410 2 19.5978 53.9511 19.5978 
411 2 21.0291 52.5197 18.1664 
412 2 22.4605 53.9511 19.5978 
413 2 23.8919 52.5197 18.1664 
414 2 25.3233 53.9511 19.5978 
415 2 26.7547 52.5197 18.1664 
416 2 28.1861 53.9511 19.5978 
417 2 29.6175 52.5197 18.1664 
418 2 31.0489 53.9511 19.5978 
419 2 32.4803 52.5197 18.1664 
420 2 33.9117 53.9511 19.5978 
421 2 35.343 52.5197 18.1664 
422 2 36.7744 53.9511 19.5978 
423 2 38.2058 52.5197 18.1664 
424 2 39.6372 53.9511 19.5978 
425 2 41.0686 52.5197 18.1664 
426 2 42.5 53.9511 19.5978 
427 2 43.9314 52.5197 18.1664 
428 2 45.3628 53.9511 19.5978 
429 2 46.7942 52.5197 18.1664 
430 2 48.2256 53.9511 19.5978 
431 2 49.657 52.5197 18.1664 
432 2 51.0883 53.9511 19.5978 
433 2 52.5197 52.5197 18.1664 
434 2 53.9511 53.9511 19.5978 
435 2 55.3825 52.5197 18.1664 
436 2 56.8139 53.9511 19.5978 
437 2 58.2453 52.5197 18.1664 
438 2 59.6767 53.9511 19.5978 
439 2 61.1081 52.5197 18.1664 
440 2 62.5395 53.9511 19.5978 
441 2 63.9709 52.5197 18.1664 
442 2 65.4022 53.9511 19.5978 
443 2 18.1664 55.3825 18.1664 
444 2 19.5978 56.8139 19.5978 
445 2 21.0291 55.3825 18.1664 
446 2 22.4605 56.8139 19.5978 
447 2 23.8919 55.3825 18.1664 
448 2 25.3233 56.8139 19.5978 
449 2 26.7547 55.3825 18.1664 
450 2 28.1861 56.8139 19.5978 
451 2 29.6175 55.3825 18.1664 
452 2 31.0489 56.8139 19.5978 
453 2 32.4803 55.3825 18.1664 
454 2 33.9117 56.8139 19.5978 
455 2 35.343 55.3825 18.1664 
456 2 36.7744 56.8139 19.5978 
457 2 38.2058 55.3825 18.1664 
458 2 39.6372 56.8139 19.5978 
459 2 41.0686 55.3825 18.1664 
460 2 42.5 56.8139 19.5978 
461 2 43.9314 55.3825 18.1664 
462 2 45.3628 56.8139 19.5978 
463 2 46.7942 55.3825 18.1664 
464 2 48.2256 56.8139 19.5978 
465 2 49.657 55.3825 18.1664 
466 2 51.0883 56.8139 19.5978 
467 2 52.5197 55.3825 18.1664 
468 2 53.9511 56.8139 19.5978 
469 2 55.3825 55.3825 18.1664 
470 2 56.8139 56.8139 19.5978 
471 2 58.2453 55.3825 18.1664 
472 2 59.6767 56.8139 19.5978 
473 2 61.1081 55.3825 18.1664 
474 2 62.5395 56.8139 19.5978 
475 2 63.9709 55.3825 18.1664 
476 2 65.4022 56.8139 19.5978 
477 2 18.1664 58.2453 18.1664 
478 2 19.5978 59.6767 19.5978 
479 2 21.0291 58.2453 18.1664 
480 2 22.4605 59.6767 19.5978 
481 2 23.8919 58.2453 18.1664 
482 2 25.3233 59.6767 19.5978 
483 2 26.7547 58.2453 18.1664 
484 2 28.1861 59.6767 19.5978 
485 2 29.6175 58.2453 18.1664 
486 2 31.0489 59.6767 19.5978 
487 2 32.4803 58.2453 18.1664 
488 2 33.9117 59.6767 19.5978 
489 2 35.343 58.2453 18.1664 
490 2 36.7744 59.6767 19.5978 
491 2 38.2058 58.2453 18.1664 
492 2 39.6372 59.6767 19.5978 
493 2 41.0686 58.2453 18.1664 
494 2 42.5 59.6767 19.5978 
495 2 43.9314 58.2453 18.1664 
496 2 45.3628 59.6767 19.5978 
497 2 46.7942 58.2453 18.1664 
498 2 48.2256 59.6767 19.5978 
499 2 49.657 58.2453 18.1664 
500 2 51.0883 59.6767 19.5978 
501 2 52.5197 58.2453 18.1664 
502 2 53.9511 59.6767 19.5978 
503 2 55.3825 58.2453 18.1664 
504 2 56.8139 59.6767 19.5978 
505 2 58.2453 58.2453 18.1664 
506 2 59.6767 59.6767 19.5978 
507 2 61.1081 58.2453 18.1664 
508 2 62.5395 59.6767 19.5978 
509 2 63.9709 58.2453 18.1664 
510 2 65.4022 59.6767 19.5978 
511 2 18.1664 61.1081 18.1664 
512 2 19.5978 62.5395 19.5978 
513 2 21.0291 61.1081 18.1664 
514 2 22.4605 62.5395 19.5978 
515 2 23.8919 61.1081 18.1664 
516 2 25.3233 62.5395 19.5978 
517 2 26.7547 61.1081 18.1664 
518 2 28.1861 62.5395 19.5978 
519 2 29.6175 61.1081 18.1664 
520 2 31.0489 62.5395 19.5978 
521 2 32.4803 61.1081 18.1664 
522 2 33.9117 62.5395 19.5978 
523 2 35.343 61.1081 18.1664 
524 2 36.7744 62.5395 19.5978 
525 2 38.2058 61.1081 18.1664 
526 2 39.6372 62.5395 19.5978 
527 2 41.0686 61.1081 18.1664 
528 2 42.5 62.5395 19.5978 
529 2 43.9314 61.1081 18.1664 
530 2 45.3628 62.5395 19.5978 
531 2 46.7942 61.1081 18.1664 
532 2 48.2256 62.5395 19.5978 
533 2 49.657 61.1081 18.1664 
534 2 51.0883 62.5395 19.5978 
535 2 52.5197 61.1081 18.1664 
536 2 53.9511 62.5395 19.5978 
537 2 55.3825 61.1081 18.1664 
538 2 56.8139 62.5395 19.5978 
539 2 58.2453 61.1081 18.1664 
540 2 59.6767 62.5395 19.5978 
541 2 61.1081 61.1081 18.1664 
542 2 62.5395 62.5395 19.5978 
543 2 63.9709 61.1081 18.1664 
544 2 65.4022 62.5395 19.5978 
545 2 18.1664 63.9709 18.1664 
546 2 19.5978 65.4022 19.5978 
547 2 21.0291 63.9709 18.1664 
548 2 22.4605 65.4022 19.5978 
549 2 23.8919 63.9709 18.1664 
550 2 25.3233 65.4022 19.5978 
551 2 26.7547 63.9709 18.1664 
552 2 28.1861 65.4022 19.5978 
553 2 29.6175 63.9709 18.1664 
554 2 31.0489 65.4022 19.5978 
555 2 32.4803 63.9709 18.1664 
556 2 33.9117 65.4022 19.5978 
557 2 35.343 63.9709 18.1664 
558 2 36.7744 65.4022 19.5978 
559 2 38.2058 63.9709 18.1664 
560 2 39.6372 65.4022 19.5978 
561 2 41.0686 63.9709 18.1664 
562 2 42.5 65.4022 19.5978 
563 2 43.9314 63.9709 18.1664 
564 2 45.3628 65.4022 19.5978 
565 2 46.7942 63.9709 18.1664 
566 2 48.2256 65.4022 19.5978 
567 2 49.657 63.9709 18.1664 
568 2 51.0883 65.4022 19.5978 
569 2 52.5197 63.9709 18.1664 
570 2 53.9511 65.4022 19.5978 
571 2 55.3825 63.9709 18.1664 
572 2 56.8139 65.4022 19.5978 
573 2 58.2453 63.9709 18.1664 
574 2 59.6767 65.4022 19.5978 
575 2 61.1081 63.9709 18.1664 
576 2 62.5395 65.4022 19.5978 
577 2 63.9709 63.9709 18.1664 
578 2 65.4022 65.4022 19.5978 
579 2 18.1664 18.1664 21.0291 
580 2 19.5978 19.5978 22.4605 
581 2 21.0291 18.1664 21.0291 
582 2 22.4605 19.5978 22.4605 
583 2 23.8919 18.1664 21.0291 
584 2 25.3233 19.5978 22.4605 
585 2 26.7547 18.1664 21.0291 
586 2 28.1861 19.5978 22.4605 
587 2 29.6175 18.1664 21.0291 
588 2 31.0489 19.5978 22.4605 
589 2 32.4803 18.1664 21.0291 
590 2 33.9117 19.5978 22.4605 
591 2 35.343 18.1664 21.0291 
592 2 36.7744 19.5978 22.4605 
593 2 38.2058 18.1664 21.0291 
594 2 39.6372 19.5978 22.4605 
595 2 41.0686 18.1664 21.0291 
596 2 42.5 19.5978 22.4605 
597 2 43.9314 18.1664 21.0291 
598 2 45.3628 19.5978 22.4605 
599 2 46.7942 18.1664 21.0291 
600 2 48.2256 19.5978 22.4605 
601 2 49.657 18.1664 21.0291 
602 2 51.0883 19.5978 22.4605 
603 2 52.5197 18.1664 21.0291 
604 2 53.9511 19.5978 22.4605 
605 2 55.3825 18.1664 21.0291 
606 2 56.8139 19.5978 22.4605 
607 2 58.2453 18.1664 21.0291 
608 2 59.6767 19.5978 22.4605 
609 2 61.1081 18.1664 21.0291 
610 2 62.5395 19.5978 22.4605 
611 2 63.9709 18.1664 21.0291 
612 2 65.4022 19.5978 22.4605 
613 2 18.1664 21.0291 21.0291 
614 2 19.5978 22.4605 22.4605 
615 2 21.0291 21.0291 21.0291 
616 2 22.4605 22.4605 22.4605 
617 2 23.8919 21.0291 21.0291 
618 2 25.3233 22.4605 22.4605 
619 2 26.7547 21.0291 21.0291 
620 2 28.1861 22.4605 22.4605 
621 2 29.6175 21.0291 21.0291 
622 2 31.0489 22.4605 22.4605 
623 2 32.4803 21.0291 21.0291 
624 2 33.9117 22.4605 22.4605 
625 2 35.343 21.0291 21.0291 
626 2 36.7744 22.4605 22.4605 
627 2 38.2058 21.0291 21.0291 
628 2 39.6372 22.4605 22.4605 
629 2 41.0686 21.0291 21.0291 
630 2 42.5 22.4605 22.4605 
631 2 43.9314 21.0291 21.0291 
632 2 45.3628 22.4605 22.4605 
633 2 46.7942 21.0291 21.0291 
634 2 48.2256 22.4605 22.4605 
635 2 49.657 21.0291 21.0291 
636 2 51.0883 22.4605 22.4605 
637 2 52.5197 21.0291 21.0291 
638 2 53.9511 22.4605 22.4605 
639 2 55.3825 21.0291 21.0291 
640 2 56.8139 22.4605 22.4605 
641 2 58.2453 21.0291 21.0291 
642 2 59.6767 22.4605 22.4605 
643 2 61.1081 21.0291 21.0291 
644 2 62.5395 22.4605 22.4605 
645 2 63.9709 21.0291 21.0291 
646 2 65.4022 22.4605 22.4605 
647 2 18.1664 23.8919 21.0291 
648 2 19.5978 25.3233 22.4605 
649 2 21.0291 23.8919 21.0291 
650 2 22.4605 25.3233 22.4605 
651 2 23.8919 23.8919 21.0291 
652 2 25.3233 25.3233 22.4605 
653 2 26.7547 23.8919 21.0291 
654 2 28.1861 25.3233 22.4605 
655 2 29.6175 23.8919 21.0291 
656 2 31.0489 25.3233 22.4605 
657 2 32.4803 23.8919 21.0291 
658 2 33.9117 25.3233 22.4605 
659 2 35.343 23.8919 21.0291 
660 2 36.7744 25.3233 22.4605 
661 2 38.2058 23.8919 21.0291 
662 2 39.6372 25.3233 22.4605 
663 2 41.0686 23.8919 21.0291 
664 2 42.5 25.3233 22.4605 
665 2 43.9314 23.8919 21.0291 
666 2 45.3628 25.3233 22.4605 
667 2 46.7942 23.8919 21.0291 
668 2 48.2256 25.3233 22.4605 
669 2 49.657 23.8919 21.0291 
670 2 51.0883 25.3233 22.4605 
671 2 52.5197 23.8919 21.0291 
672 2 53.9511 25.3233 22.4605 
673 2 55.3825 23.8919 21.0291 
674 2 56.8139 25.3233 22.4605 
675 2 58.2453 23.8919 21.0291 
676 2 59.6767 25.3233 22.4605 
677 2 61.1081 23.8919 21.0291 
678 2 62.5395 25.3233 22.4605 
679 2 63.9709 23.8919 21.0291 
680 2 65.4022 25.3233 22.4605 
681 2 18.1664 26.7547 21.0291 
682 2 19.5978 28.1861 22.4605 
683 2 21.0291 26.7547 21.0291 
684 2 22.4605 28.1861 22.4605 
685 2 23.8919 26.7547 21.0291 
686 2 25.3233 28.1861 22.4605 
687 2 26.7547 26.7547 21.0291 
688 2 28.1861 28.1861 22.4605 
689 2 29.6175 26.7547 21.0291 
690 2 31.0489 28.1861 22.4605 
691 2 32.4803 26.7547 21.0291 
692 2 33.9117 28.1861 22.4605 
693 2 35.343 26.7547 21.0291 
694 2 36.7744 28.1861 22.4605 
695 2 38.2058 26.7547 21.0291 
696 2 39.6372 28.1861 22.4605 
697 2 41.0686 26.7547 21.0291 
698 2 42.5 28.1861 22.4605 
699 2 43.9314 26.7547 21.0291 
700 2 45.3628 28.1861 22.4605 
701 2 46.7942 26.7547 21.0291 
702 2 48.2256 28.1861 22.4605 
703 2 49.657 26.7547 21.0291 
704 2 51.0883 28.1861 22.4605 
705 2 52.5197 26.7547 21.0291 
706 2 53.9511 28.1861 22.4605 
707 2 55.3825 26.7547 21.0291 
708 2 56.8139 28.1861 22.4605 
709 2 58.2453 26.7547 21.0291 
710 2 59.6767 28.1861 22.4605 
711 2 61.1081 26.7547 21.0291 
712 2 62.5395 28.1861 22.4605 
713 2 63.9709 26.7547 21.0291 
714 2 65.4022 28.1861 22.4605 
715 2 18.1664 29.6175 21.0291 
716 2 19.5978 31.0489 22.4605 
717 2 21.0291 29.6175 21.0291 
718 2 22.4605 31.0489 22.4605 
719 2 23.8919 29.6175 21.0291 
720 2 25.3233 31.0489 22.4605 
721 2 26.7547 29.6175 21.0291 
722 2 28.1861 31.0489 22.4605 
723 2 29.6175 29.6175 21.0291 
724 2 31.0489 31.0489 22.4605 
725 2 32.4803 29.6175 21.0291 
726 2 33.9117 31.0489 22.4605 
727 2 35.343 29.6175 21.0291 
728 2 36.7744 31.0489 22.4605 
729 2 38.2058 29.6175 21.0291 
730 2 39.6372 31.0489 22.4605 
731 2 41.0686 29.6175 21.0291 
732 2 42.5 31.0489 22.4605 
733 2 43.9314 29.6175 21.0291 
734 2 45.3628 31.0489 22.4605 
735 2 46.7942 29.6175 21.0291 
736 2 48.2256 31.0489 22.4605 
737 2 49.657 29.6175 21.0291 
738 2 51.0883 31.0489 22.4605 
739 2 52.5197 29.6175 21.0291 
740 2 53.9511 31.0489 22.4605 
741 2 55.3825 29.6175 21.0291 
742 2 56.8139 31.0489 22.4605 
743 2 58.2453 29.6175 21.0291 
744 2 59.6767 31.0489 22.4605 
745 2 61.1081 29.6175 21.0291 
746 2 62.5395 31.0489 22.4605 
747 2 63.9709 29.6175 21.0291 
748 2 65.4022 31.0489 22.4605 
749 2 18.1664 32.4803 21.0291 
750 2 19.5978 33.9117 22.4605 
751 2 21.0291 32.4803 21.0291 
752 2 22.4605 33.9117 22.4605 
753 2 23.8919 32.4803 21.0291 
754 2 25.3233 33.9117 22.4605 
755 2 26.7547 32.4803 21.0291 
756 2 28.1861 33.9117 22.4605 
757 2 29.6175 32.4803 21.0291 
758 2 31.0489 33.9117 22.4605 
759 2 32.4803 32.4803 21.0291 
760 2 33.9117 33.9117 22.4605 
761 2 35.343 32.4803 21.0291 
762 2 36.7744 33.9117 22.4605 
763 2 38.2058 32.4803 21.0291 
764 2 39.6372 33.9117 22.4605 
765 2 41.0686 32.4803 21.0291 
766 2 42.5 33.9117 22.4605 
767 2 43.9314 32.4803 21.0291 
768 2 45.3628 33.9117 22.4605 
769 2 46.7942 32.4803 21.0291 
770 2 48.2256 33.9117 22.4605 
771 2 49.657 32.4803 21.0291 
772 2 51.0883 33.9117 22.4605 
773 2 52.5197 32.4803 21.0291 
774 2 53.9511 33.9117 22.4605 
775 2 55.3825 32.4803 21.0291 
776 2 56.8139 33.9117 22.4605 
777 2 58.2453 32.4803 21.0291 
778 2 59.6767 33.9117 22.4605 
779 2 61.1081 32.4803 21.0291 
780 2 62.5395 33.9117 22.4605 
781 2 63.9709 32.4803 21.0291 
782 2 65.4022 33.9117 22.4605 
783 2 18.1664 35.343 21.0291 
784 2 19.5978 36.7744 22.4605 
785 2 21.0291 35.343 21.0291 
786 2 22.4605 36.7744 22.4605 
787 2 23.8919 35.343 21.0291 
788 2 25.3233 36.7744 22.4605 
789 2 26.7547 35.343 21.0291 
790 2 28.1861 36.7744 22.4605 
791 2 29.6175 35.343 21.0291 
792 2 31.0489 36.7744 22.4605 
793 2 32.4803 35.343 21.0291 
794 2 33.9117 36.7744 22.4605 
795 2 35.343 35.343 21.0291 
796 2 36.7744 36.7744 22.4605 
797 2 38.2058 35.343 21.0291 
798 2 39.6372 36.7744 22.4605 
799 2 41.0686 35.343 21.0291 
800 2 42.5 36.7744 22.4605 
801 2 43.9314 35.343 21.0291 
802 2 45.3628 36.7744 22.4605 
803 2 46.7942 35.343 21.0291 
804 2 48.2256 36.7744 22.4605 
805 2 49.657 35.343 21.0291 
806 2 51.0883 36.7744 22.4605 
807 2 52.5197 35.343 21.0291 
808 2 53.9511 36.7744 22.4605 
809 2 55.3825 35.343 21.0291 
810 2 56.8139 36.7744 22.4605 
811 2 58.2453 35.343 21.0291 
812 2 59.6767 36.7744 22.4605 
813 2 61.1081 35.343 21.0291 
814 2 62.5395 36.7744 22.4605 
815 2 63.9709 35.343 21.0291 
816 2 65.4022 36.7744 22.4605 
817 2 18.1664 38.2058 21.0291 
818 2 19.5978 39.6372 22.4605 
819 2 21.0291 38.2058 21.0291 
820 2 22.4605 39.6372 22.4605 
821 2 23.8919 38.2058 21.0291 
822 2 25.3233 39.6372 22.4605 
823 2 26.7547 38.2058 21.0291 
824 2 28.1861 39.6372 22.4605 
825 2 29.6175 38.2058 21.0291 
826 2 31.0489 39.6372 22.4605 
827 2 32.4803 38.2058 21.0291 
828 2 33.9117 39.6372 22.4605 
829 2 35.343 38.2058 21.0291 
830 2 36.7744 39.6372 22.4605 
831 2 38.2058 38.2058 21.0291 
832 2 39.6372 39.6372 22.4605 
833 2 41.0686 38.2058 21.0291 
834 2 42.5 39.6372 22.4605 
835 2 43.9314 38.2058 21.0291 
836 2 45.3628 39.6372 22.4605 
837 2 46.7942 38.2058 21.0291 
838 2 48.2256 39.6372 22.4605 
839 2 49.657 38.2058 21.0291 
840 2 51.0883 39.6372 22.4605 
841 2 52.5197 38.2058 21.0291 
842 2 53.9511 39.6372 22.4605 
843 2 55.3825 38.2058 21.0291 
844 2 56.8139 39.6372 22.4605 
845 2 58.2453 38.2058 21.0291 
846 2 59.6767 39.6372 22.4605 
847 2 61.1081 38.2058 21.0291 
848 2 62.5395 39.6372 22.4605 
849 2 63.9709 38.2058 21.0291 
850 2 65.4022 39.6372 22.4605 
851 2 18.1664 41.0686 21.0291 
852 2 19.5978 42.5 22.4605 
853 2 21.0291 41.0686 21.0291 
854 2 22.4605 42.5 22.4605 
855 2 23.8919 41.0686 21.0291 
856 2 25.3233 42.5 22.4605 
857 2 26.7547 41.0686 21.0291 
858 2 28.1861 42.5 22.4605 
859 2 29.6175 41.0686 21.0291 
860 2 31.0489 42.5 22.4605 
861 2 32.4803 41.0686 21.0291 
862 2 33.9117 42.5 22.4605 
863 2 35.343 41.0686 21.0291 
864 2 36.7744 42.5 22.4605 
865 2 38.2058 41.0686 21.0291 
866 2 39.6372 42.5 22.4605 
867 2 41.0686 41.0686 21.0291 
868 2 42.5 42.5 22.4605 
869 2 43.9314 41.0686 21.0291 
870 2 45.3628 42.5 22.4605 
871 2 46.7942 41.0686 21.0291 
872 2 48.2256 42.5 22.4605 
873 2 49.657 41.0686 21.0291 
874 2 51.0883 42.5 22.4605 
875 2 52.5197 41.0686 21.0291 
876 2 53.9511 42.5 22.4605 
877 2 55.3825 41.0686 21.0291 
878 2 56.8139 42.5 22.4605 
879 2 58.2453 41.0686 21.0291 
880 2 59.6767 42.5 22.4605 
881 2 61.1081 41.0686 21.0291 
882 2 62.5395 42.5 22.4605 
883 2 63.9709 41.0686 21.0291 
884 2 65.4022 42.5 22.4605 
885 2 18.1664 43.9314 21.0291 
886 2 19.5978 45.3628 22.4605 
887 2 21.0291 43.9314 21.0291 
888 2 22.4605 45.3628 22.4605 
889 2 23.8919 43.9314 21.0291 
890 2 25.3233 45.3628 22.4605 
891 2 26.7547 43.9314 21.0291 
892 2 28.1861 45.3628 22.4605 
893 2 29.6175 43.9314 21.0291 
894 2 31.0489 45.3628 22.4605 
895 2 32.4803 43.9314 21.0291 
896 2 33.9117 45.3628 22.4605 
897 2 35.343 43.9314 21.0291 
898 2 36.7744 45.3628 22.4605 
899 2 38.2058 43.9314 21.0291 
900 2 39.6372 45.3628 22.4605 
901 2 41.0686 43.9314 21.0291 
902 2 42.5 45.3628 22.4605 
903 2 43.9314 43.9314 21.0291 
904 2 45.3628 45.3628 22.4605 
905 2 46.7942 43.9314 21.0291 
906 2 48.2256 45.3628 22.4605 
907 2 49.657 43.9314 21.0291 
908 2 51.0883 45.3628 22.4605 
909 2 52.5197 43.9314 21.0291 
910 2 53.9511 45.3628 22.4605 
911 2 55.3825 43.9314 21.0291 
912 2 56.8139 45.3628 22.4605 
913 2 58.2453 43.9314 21.0291 
914 2 59.6767 45.3628 22.4605 
915 2 61.1081 43.9314 21.0291 
916 2 62.5395 45.3628 22.4605 
917 2 63.9709 43.9314 21.0291 
918 2 65.4022 45.3628 22.4605 
919 2 18.1664 46.7942 21.0291 
920 2 19.5978 48.2256 22.4605 
921 2 21.0291 46.7942 21.0291 
922 2 22.4605 48.2256 22.4605 
923 2 23.8919 46.7942 21.0291 
924 2 25.3233 48.2256 22.4605 
925 2 26.7547 46.7942 21.0291 
926 2 28.1861 48.2256 22.4605 
927 2 29.6175 46.7942 21.0291 
928 2 31.0489 48.2256 22.4605 
929 2 32.4803 46.7942 21.0291 
930 2 33.9117 48.2256 22.4605 
931 2 35.343 46.7942 21.0291 
932 2 36.7744 48.2256 22.4605 
933 2 38.2058 46.7942 21.0291 
934 2 39.6372 48.2256 22.4605 
935 2 41.0686 46.7942 21.0291 
936 2 42.5 48.2256 22.4605 
937 2 43.9314 46.7942 21.0291 
938 2 45.3628 48.2256 22.4605 
939 2 46.7942 46.7942 21.0291 
940 2 48.2256 48.2256 22.4605 
941 2 49.657 46.7942 21.0291 
942 2 51.0883 48.2256 22.4605 
943 2 52.5197 46.7942 21.0291 
944 2 53.9511 48.2256 22.4605 
945 2 55.3825 46.7942 21.0291 
946 2 56.8139 48.2256 22.4605 
947 2 58.2453 46.7942 21.0291 
948 2 59.6767 48.2256 22.4605 
949 2 61.1081 46.7942 21.0291 
950 2 62.5395 48.2256 22.4605 
951 2 63.9709 46.7942 21.0291 
952 2 65.4022 48.2256 22.4605 
953 2 18.1664 49.657 21.0291 
954 2 19.5978 51.0883 22.4605 
955 2 21.0291 49.657 21.0291 
956 2 22.4605 51.0883 22.4605 
957 2 23.8919 49.657 21.0291 
958 2 25.3233 51.0883 22.4605 
959 2 26.7547 49.657 21.0291 
960 2 28.1861 51.0883 22.4605 
961 2 29.6175 49.657 21.0291 
962 2 31.0489 51.0883 22.4605 
963 2 32.4803 49.657 21.0291 
964 2 33.9117 51.0883 22.4605 
965 2 35.343 49.657 21.0291 
966 2 36.7744 51.0883 22.4605 
967 2 38.2058 49.657 21.0291 
968 2 39.6372 51.0883 22.4605 
969 2 41.0686 49.657 21.0291 
970 2 42.5 51.0883 22.4605 
971 2 43.9314 49.657 21.0291 
972 2 45.3628 51.0883 22.4605 
973 2 46.7942 49.657 21.0291 