ITEM: TIMESTEP
74
ITEM: NUMBER OF ATOMS
19652
ITEM: BOX BOUNDS pp pp pp
1.5146232585464299e+01 6.9853767414535326e+01
2.6234044381279389e+01 1.2099027426207566e+02
2.4733694239935407e+01 1.1407072451777782e+02
ITEM: ATOMS id type xu yu zu 
1 2 15.1462 26.234 24.7337 
2 2 16.7553 29.021 24.7337 
3 2 16.7553 30.879 27.3613 
4 2 15.1462 28.092 27.3613 
5 2 18.3643 26.234 24.7337 
6 2 19.9734 29.021 24.7337 
7 2 19.9734 30.879 27.3613 
8 2 18.3643 28.092 27.3613 
9 2 21.5824 26.234 24.7337 
10 2 23.1915 29.021 24.7337 
11 2 23.1915 30.879 27.3613 
12 2 21.5824 28.092 27.3613 
13 2 24.8005 26.234 24.7337 
14 2 26.4095 29.021 24.7337 
15 2 26.4095 30.879 27.3613 
16 2 24.8005 28.092 27.3613 
17 2 28.0186 26.234 24.7337 
18 2 29.6276 29.021 24.7337 
19 2 29.6276 30.879 27.3613 
20 2 28.0186 28.092 27.3613 
21 2 31.2367 26.234 24.7337 
22 2 32.8457 29.021 24.7337 
23 2 32.8457 30.879 27.3613 
24 2 31.2367 28.092 27.3613 
25 2 34.4548 26.234 24.7337 
26 2 36.0638 29.021 24.7337 
27 2 36.0638 30.879 27.3613 
28 2 34.4548 28.092 27.3613 
29 2 37.6729 26.234 24.7337 
30 2 39.2819 29.021 24.7337 
31 2 39.2819 30.879 27.3613 
32 2 37.6729 28.092 27.3613 
33 2 40.891 26.234 24.7337 
34 2 42.5 29.021 24.7337 
35 2 42.5 30.879 27.3613 
36 2 40.891 28.092 27.3613 
37 2 44.109 26.234 24.7337 
38 2 45.7181 29.021 24.7337 
39 2 45.7181 30.879 27.3613 
40 2 44.109 28.092 27.3613 
41 2 47.3271 26.234 24.7337 
42 2 48.9362 29.021 24.7337 
43 2 48.9362 30.879 27.3613 
44 2 47.3271 28.092 27.3613 
45 2 50.5452 26.234 24.7337 
46 2 52.1543 29.021 24.7337 
47 2 52.1543 30.879 27.3613 
48 2 50.5452 28.092 27.3613 
49 2 53.7633 26.234 24.7337 
50 2 55.3724 29.021 24.7337 
51 2 55.3724 30.879 27.3613 
52 2 53.7633 28.092 27.3613 
53 2 56.9814 26.234 24.7337 
54 2 58.5905 29.021 24.7337 
55 2 58.5905 30.879 27.3613 
56 2 56.9814 28.092 27.3613 
57 2 60.1995 26.234 24.7337 
58 2 61.8085 29.021 24.7337 
59 2 61.8085 30.879 27.3613 
60 2 60.1995 28.092 27.3613 
61 2 63.4176 26.234 24.7337 
62 2 65.0266 29.021 24.7337 
63 2 65.0266 30.879 27.3613 
64 2 63.4176 28.092 27.3613 
65 2 66.6357 26.234 24.7337 
66 2 68.2447 29.021 24.7337 
67 2 68.2447 30.879 27.3613 
68 2 66.6357 28.092 27.3613 
69 2 15.1462 31.8079 24.7337 
70 2 16.7553 34.5949 24.7337 
71 2 16.7553 36.4529 27.3613 
72 2 15.1462 33.6659 27.3613 
73 2 18.3643 31.8079 24.7337 
74 2 19.9734 34.5949 24.7337 
75 2 19.9734 36.4529 27.3613 
76 2 18.3643 33.6659 27.3613 
77 2 21.5824 31.8079 24.7337 
78 2 23.1915 34.5949 24.7337 
79 2 23.1915 36.4529 27.3613 
80 2 21.5824 33.6659 27.3613 
81 2 24.8005 31.8079 24.7337 
82 2 26.4095 34.5949 24.7337 
83 2 26.4095 36.4529 27.3613 
84 2 24.8005 33.6659 27.3613 
85 2 28.0186 31.8079 24.7337 
86 2 29.6276 34.5949 24.7337 
87 2 29.6276 36.4529 27.3613 
88 2 28.0186 33.6659 27.3613 
89 2 31.2367 31.8079 24.7337 
90 2 32.8457 34.5949 24.7337 
91 2 32.8457 36.4529 27.3613 
92 2 31.2367 33.6659 27.3613 
93 2 34.4548 31.8079 24.7337 
94 2 36.0638 34.5949 24.7337 
95 2 36.0638 36.4529 27.3613 
96 2 34.4548 33.6659 27.3613 
97 2 37.6729 31.8079 24.7337 
98 2 39.2819 34.5949 24.7337 
99 2 39.2819 36.4529 27.3613 
100 2 37.6729 33.6659 27.3613 
101 2 40.891 31.8079 24.7337 
102 2 42.5 34.5949 24.7337 
103 2 42.5 36.4529 27.3613 
104 2 40.891 33.6659 27.3613 
105 2 44.109 31.8079 24.7337 
106 2 45.7181 34.5949 24.7337 
107 2 45.7181 36.4529 27.3613 
108 2 44.109 33.6659 27.3613 
109 2 47.3271 31.8079 24.7337 
110 2 48.9362 34.5949 24.7337 
111 2 48.9362 36.4529 27.3613 
112 2 47.3271 33.6659 27.3613 
113 2 50.5452 31.8079 24.7337 
114 2 52.1543 34.5949 24.7337 
115 2 52.1543 36.4529 27.3613 
116 2 50.5452 33.6659 27.3613 
117 2 53.7633 31.8079 24.7337 
118 2 55.3724 34.5949 24.7337 
119 2 55.3724 36.4529 27.3613 
120 2 53.7633 33.6659 27.3613 
121 2 56.9814 31.8079 24.7337 
122 2 58.5905 34.5949 24.7337 
123 2 58.5905 36.4529 27.3613 
124 2 56.9814 33.6659 27.3613 
125 2 60.1995 31.8079 24.7337 
126 2 61.8085 34.5949 24.7337 
127 2 61.8085 36.4529 27.3613 
128 2 60.1995 33.6659 27.3613 
129 2 63.4176 31.8079 24.7337 
130 2 65.0266 34.5949 24.7337 
131 2 65.0266 36.4529 27.3613 
132 2 63.4176 33.6659 27.3613 
133 2 66.6357 31.8079 24.7337 
134 2 68.2447 34.5949 24.7337 
135 2 68.2447 36.4529 27.3613 
136 2 66.6357 33.6659 27.3613 
137 2 15.1462 37.3818 24.7337 
138 2 16.7553 40.1688 24.7337 
139 2 16.7553 42.0267 27.3613 
140 2 15.1462 39.2398 27.3613 
141 2 18.3643 37.3818 24.7337 
142 2 19.9734 40.1688 24.7337 
143 2 19.9734 42.0267 27.3613 
144 2 18.3643 39.2398 27.3613 
145 2 21.5824 37.3818 24.7337 
146 2 23.1915 40.1688 24.7337 
147 2 23.1915 42.0267 27.3613 
148 2 21.5824 39.2398 27.3613 
149 2 24.8005 37.3818 24.7337 
150 2 26.4095 40.1688 24.7337 
151 2 26.4095 42.0267 27.3613 
152 2 24.8005 39.2398 27.3613 
153 2 28.0186 37.3818 24.7337 
154 2 29.6276 40.1688 24.7337 
155 2 29.6276 42.0267 27.3613 
156 2 28.0186 39.2398 27.3613 
157 2 31.2367 37.3818 24.7337 
158 2 32.8457 40.1688 24.7337 
159 2 32.8457 42.0267 27.3613 
160 2 31.2367 39.2398 27.3613 
161 2 34.4548 37.3818 24.7337 
162 2 36.0638 40.1688 24.7337 
163 2 36.0638 42.0267 27.3613 
164 2 34.4548 39.2398 27.3613 
165 2 37.6729 37.3818 24.7337 
166 2 39.2819 40.1688 24.7337 
167 2 39.2819 42.0267 27.3613 
168 2 37.6729 39.2398 27.3613 
169 2 40.891 37.3818 24.7337 
170 2 42.5 40.1688 24.7337 
171 2 42.5 42.0267 27.3613 
172 2 40.891 39.2398 27.3613 
173 2 44.109 37.3818 24.7337 
174 2 45.7181 40.1688 24.7337 
175 2 45.7181 42.0267 27.3613 
176 2 44.109 39.2398 27.3613 
177 2 47.3271 37.3818 24.7337 
178 2 48.9362 40.1688 24.7337 
179 2 48.9362 42.0267 27.3613 
180 2 47.3271 39.2398 27.3613 
181 2 50.5452 37.3818 24.7337 
182 2 52.1543 40.1688 24.7337 
183 2 52.1543 42.0267 27.3613 
184 2 50.5452 39.2398 27.3613 
185 2 53.7633 37.3818 24.7337 
186 2 55.3724 40.1688 24.7337 
187 2 55.3724 42.0267 27.3613 
188 2 53.7633 39.2398 27.3613 
189 2 56.9814 37.3818 24.7337 
190 2 58.5905 40.1688 24.7337 
191 2 58.5905 42.0267 27.3613 
192 2 56.9814 39.2398 27.3613 
193 2 60.1995 37.3818 24.7337 
194 2 61.8085 40.1688 24.7337 
195 2 61.8085 42.0267 27.3613 
196 2 60.1995 39.2398 27.3613 
197 2 63.4176 37.3818 24.7337 
198 2 65.0266 40.1688 24.7337 
199 2 65.0266 42.0267 27.3613 
200 2 63.4176 39.2398 27.3613 
201 2 66.6357 37.3818 24.7337 
202 2 68.2447 40.1688 24.7337 
203 2 68.2447 42.0267 27.3613 
204 2 66.6357 39.2398 27.3613 
205 2 15.1462 42.9557 24.7337 
206 2 16.7553 45.7427 24.7337 
207 2 16.7553 47.6006 27.3613 
208 2 15.1462 44.8137 27.3613 
209 2 18.3643 42.9557 24.7337 
210 2 19.9734 45.7427 24.7337 
211 2 19.9734 47.6006 27.3613 
212 2 18.3643 44.8137 27.3613 
213 2 21.5824 42.9557 24.7337 
214 2 23.1915 45.7427 24.7337 
215 2 23.1915 47.6006 27.3613 
216 2 21.5824 44.8137 27.3613 
217 2 24.8005 42.9557 24.7337 
218 2 26.4095 45.7427 24.7337 
219 2 26.4095 47.6006 27.3613 
220 2 24.8005 44.8137 27.3613 
221 2 28.0186 42.9557 24.7337 
222 2 29.6276 45.7427 24.7337 
223 2 29.6276 47.6006 27.3613 
224 2 28.0186 44.8137 27.3613 
225 2 31.2367 42.9557 24.7337 
226 2 32.8457 45.7427 24.7337 
227 2 32.8457 47.6006 27.3613 
228 2 31.2367 44.8137 27.3613 
229 2 34.4548 42.9557 24.7337 
230 2 36.0638 45.7427 24.7337 
231 2 36.0638 47.6006 27.3613 
232 2 34.4548 44.8137 27.3613 
233 2 37.6729 42.9557 24.7337 
234 2 39.2819 45.7427 24.7337 
235 2 39.2819 47.6006 27.3613 
236 2 37.6729 44.8137 27.3613 
237 2 40.891 42.9557 24.7337 
238 2 42.5 45.7427 24.7337 
239 2 42.5 47.6006 27.3613 
240 2 40.891 44.8137 27.3613 
241 2 44.109 42.9557 24.7337 
242 2 45.7181 45.7427 24.7337 
243 2 45.7181 47.6006 27.3613 
244 2 44.109 44.8137 27.3613 
245 2 47.3271 42.9557 24.7337 
246 2 48.9362 45.7427 24.7337 
247 2 48.9362 47.6006 27.3613 
248 2 47.3271 44.8137 27.3613 
249 2 50.5452 42.9557 24.7337 
250 2 52.1543 45.7427 24.7337 
251 2 52.1543 47.6006 27.3613 
252 2 50.5452 44.8137 27.3613 
253 2 53.7633 42.9557 24.7337 
254 2 55.3724 45.7427 24.7337 
255 2 55.3724 47.6006 27.3613 
256 2 53.7633 44.8137 27.3613 
257 2 56.9814 42.9557 24.7337 
258 2 58.5905 45.7427 24.7337 
259 2 58.5905 47.6006 27.3613 
260 2 56.9814 44.8137 27.3613 
261 2 60.1995 42.9557 24.7337 
262 2 61.8085 45.7427 24.7337 
263 2 61.8085 47.6006 27.3613 
264 2 60.1995 44.8137 27.3613 
265 2 63.4176 42.9557 24.7337 
266 2 65.0266 45.7427 24.7337 
267 2 65.0266 47.6006 27.3613 
268 2 63.4176 44.8137 27.3613 
269 2 66.6357 42.9557 24.7337 
270 2 68.2447 45.7427 24.7337 
271 2 68.2447 47.6006 27.3613 
272 2 66.6357 44.8137 27.3613 
273 2 15.1462 48.5296 24.7337 
274 2 16.7553 51.3166 24.7337 
275 2 16.7553 53.1745 27.3613 
276 2 15.1462 50.3876 27.3613 
277 2 18.3643 48.5296 24.7337 
278 2 19.9734 51.3166 24.7337 
279 2 19.9734 53.1745 27.3613 
280 2 18.3643 50.3876 27.3613 
281 2 21.5824 48.5296 24.7337 
282 2 23.1915 51.3166 24.7337 
283 2 23.1915 53.1745 27.3613 
284 2 21.5824 50.3876 27.3613 
285 2 24.8005 48.5296 24.7337 
286 2 26.4095 51.3166 24.7337 
287 2 26.4095 53.1745 27.3613 
288 2 24.8005 50.3876 27.3613 
289 2 28.0186 48.5296 24.7337 
290 2 29.6276 51.3166 24.7337 
291 2 29.6276 53.1745 27.3613 
292 2 28.0186 50.3876 27.3613 
293 2 31.2367 48.5296 24.7337 
294 2 32.8457 51.3166 24.7337 
295 2 32.8457 53.1745 27.3613 
296 2 31.2367 50.3876 27.3613 
297 2 34.4548 48.5296 24.7337 
298 2 36.0638 51.3166 24.7337 
299 2 36.0638 53.1745 27.3613 
300 2 34.4548 50.3876 27.3613 
301 2 37.6729 48.5296 24.7337 
302 2 39.2819 51.3166 24.7337 
303 2 39.2819 53.1745 27.3613 
304 2 37.6729 50.3876 27.3613 
305 2 40.891 48.5296 24.7337 
306 2 42.5 51.3166 24.7337 
307 2 42.5 53.1745 27.3613 
308 2 40.891 50.3876 27.3613 
309 2 44.109 48.5296 24.7337 
310 2 45.7181 51.3166 24.7337 
311 2 45.7181 53.1745 27.3613 
312 2 44.109 50.3876 27.3613 
313 2 47.3271 48.5296 24.7337 
314 2 48.9362 51.3166 24.7337 
315 2 48.9362 53.1745 27.3613 
316 2 47.3271 50.3876 27.3613 
317 2 50.5452 48.5296 24.7337 
318 2 52.1543 51.3166 24.7337 
319 2 52.1543 53.1745 27.3613 
320 2 50.5452 50.3876 27.3613 
321 2 53.7633 48.5296 24.7337 
322 2 55.3724 51.3166 24.7337 
323 2 55.3724 53.1745 27.3613 
324 2 53.7633 50.3876 27.3613 
325 2 56.9814 48.5296 24.7337 
326 2 58.5905 51.3166 24.7337 
327 2 58.5905 53.1745 27.3613 
328 2 56.9814 50.3876 27.3613 
329 2 60.1995 48.5296 24.7337 
330 2 61.8085 51.3166 24.7337 
331 2 61.8085 53.1745 27.3613 
332 2 60.1995 50.3876 27.3613 
333 2 63.4176 48.5296 24.7337 
334 2 65.0266 51.3166 24.7337 
335 2 65.0266 53.1745 27.3613 
336 2 63.4176 50.3876 27.3613 
337 2 66.6357 48.5296 24.7337 
338 2 68.2447 51.3166 24.7337 
339 2 68.2447 53.1745 27.3613 
340 2 66.6357 50.3876 27.3613 
341 2 15.1462 54.1035 24.7337 
342 2 16.7553 56.8905 24.7337 
343 2 16.7553 58.7484 27.3613 
344 2 15.1462 55.9615 27.3613 
345 2 18.3643 54.1035 24.7337 
346 2 19.9734 56.8905 24.7337 
347 2 19.9734 58.7484 27.3613 
348 2 18.3643 55.9615 27.3613 
349 2 21.5824 54.1035 24.7337 
350 2 23.1915 56.8905 24.7337 
351 2 23.1915 58.7484 27.3613 
352 2 21.5824 55.9615 27.3613 
353 2 24.8005 54.1035 24.7337 
354 2 26.4095 56.8905 24.7337 
355 2 26.4095 58.7484 27.3613 
356 2 24.8005 55.9615 27.3613 
357 2 28.0186 54.1035 24.7337 
358 2 29.6276 56.8905 24.7337 
359 2 29.6276 58.7484 27.3613 
360 2 28.0186 55.9615 27.3613 
361 2 31.2367 54.1035 24.7337 
362 2 32.8457 56.8905 24.7337 
363 2 32.8457 58.7484 27.3613 
364 2 31.2367 55.9615 27.3613 
365 2 34.4548 54.1035 24.7337 
366 2 36.0638 56.8905 24.7337 
367 2 36.0638 58.7484 27.3613 
368 2 34.4548 55.9615 27.3613 
369 2 37.6729 54.1035 24.7337 
370 2 39.2819 56.8905 24.7337 
371 2 39.2819 58.7484 27.3613 
372 2 37.6729 55.9615 27.3613 
373 2 40.891 54.1035 24.7337 
374 2 42.5 56.8905 24.7337 
375 2 42.5 58.7484 27.3613 
376 2 40.891 55.9615 27.3613 
377 2 44.109 54.1035 24.7337 
378 2 45.7181 56.8905 24.7337 
379 2 45.7181 58.7484 27.3613 
380 2 44.109 55.9615 27.3613 
381 2 47.3271 54.1035 24.7337 
382 2 48.9362 56.8905 24.7337 
383 2 48.9362 58.7484 27.3613 
384 2 47.3271 55.9615 27.3613 
385 2 50.5452 54.1035 24.7337 
386 2 52.1543 56.8905 24.7337 
387 2 52.1543 58.7484 27.3613 
388 2 50.5452 55.9615 27.3613 
389 2 53.7633 54.1035 24.7337 
390 2 55.3724 56.8905 24.7337 
391 2 55.3724 58.7484 27.3613 
392 2 53.7633 55.9615 27.3613 
393 2 56.9814 54.1035 24.7337 
394 2 58.5905 56.8905 24.7337 
395 2 58.5905 58.7484 27.3613 
396 2 56.9814 55.9615 27.3613 
397 2 60.1995 54.1035 24.7337 
398 2 61.8085 56.8905 24.7337 
399 2 61.8085 58.7484 27.3613 
400 2 60.1995 55.9615 27.3613 
401 2 63.4176 54.1035 24.7337 
402 2 65.0266 56.8905 24.7337 
403 2 65.0266 58.7484 27.3613 
404 2 63.4176 55.9615 27.3613 
405 2 66.6357 54.1035 24.7337 
406 2 68.2447 56.8905 24.7337 
407 2 68.2447 58.7484 27.3613 
408 2 66.6357 55.9615 27.3613 
409 2 15.1462 59.6774 24.7337 
410 2 16.7553 62.4644 24.7337 
411 2 16.7553 64.3223 27.3613 
412 2 15.1462 61.5354 27.3613 
413 2 18.3643 59.6774 24.7337 
414 2 19.9734 62.4644 24.7337 
415 2 19.9734 64.3223 27.3613 
416 2 18.3643 61.5354 27.3613 
417 2 21.5824 59.6774 24.7337 
418 2 23.1915 62.4644 24.7337 
419 2 23.1915 64.3223 27.3613 
420 2 21.5824 61.5354 27.3613 
421 2 24.8005 59.6774 24.7337 
422 2 26.4095 62.4644 24.7337 
423 2 26.4095 64.3223 27.3613 
424 2 24.8005 61.5354 27.3613 
425 2 28.0186 59.6774 24.7337 
426 2 29.6276 62.4644 24.7337 
427 2 29.6276 64.3223 27.3613 
428 2 28.0186 61.5354 27.3613 
429 2 31.2367 59.6774 24.7337 
430 2 32.8457 62.4644 24.7337 
431 2 32.8457 64.3223 27.3613 
432 2 31.2367 61.5354 27.3613 
433 2 34.4548 59.6774 24.7337 
434 2 36.0638 62.4644 24.7337 
435 2 36.0638 64.3223 27.3613 
436 2 34.4548 61.5354 27.3613 
437 2 37.6729 59.6774 24.7337 
438 2 39.2819 62.4644 24.7337 
439 2 39.2819 64.3223 27.3613 
440 2 37.6729 61.5354 27.3613 
441 2 40.891 59.6774 24.7337 
442 2 42.5 62.4644 24.7337 
443 2 42.5 64.3223 27.3613 
444 2 40.891 61.5354 27.3613 
445 2 44.109 59.6774 24.7337 
446 2 45.7181 62.4644 24.7337 
447 2 45.7181 64.3223 27.3613 
448 2 44.109 61.5354 27.3613 
449 2 47.3271 59.6774 24.7337 
450 2 48.9362 62.4644 24.7337 
451 2 48.9362 64.3223 27.3613 
452 2 47.3271 61.5354 27.3613 
453 2 50.5452 59.6774 24.7337 
454 2 52.1543 62.4644 24.7337 
455 2 52.1543 64.3223 27.3613 
456 2 50.5452 61.5354 27.3613 
457 2 53.7633 59.6774 24.7337 
458 2 55.3724 62.4644 24.7337 
459 2 55.3724 64.3223 27.3613 
460 2 53.7633 61.5354 27.3613 
461 2 56.9814 59.6774 24.7337 
462 2 58.5905 62.4644 24.7337 
463 2 58.5905 64.3223 27.3613 
464 2 56.9814 61.5354 27.3613 
465 2 60.1995 59.6774 24.7337 
466 2 61.8085 62.4644 24.7337 
467 2 61.8085 64.3223 27.3613 
468 2 60.1995 61.5354 27.3613 
469 2 63.4176 59.6774 24.7337 
470 2 65.0266 62.4644 24.7337 
471 2 65.0266 64.3223 27.3613 
472 2 63.4176 61.5354 27.3613 
473 2 66.6357 59.6774 24.7337 
474 2 68.2447 62.4644 24.7337 
475 2 68.2447 64.3223 27.3613 
476 2 66.6357 61.5354 27.3613 
477 2 15.1462 65.2513 24.7337 
478 2 16.7553 68.0383 24.7337 
479 2 16.7553 69.8962 27.3613 
480 2 15.1462 67.1093 27.3613 
481 2 18.3643 65.2513 24.7337 
482 2 19.9734 68.0383 24.7337 
483 2 19.9734 69.8962 27.3613 
484 2 18.3643 67.1093 27.3613 
485 2 21.5824 65.2513 24.7337 
486 2 23.1915 68.0383 24.7337 
487 2 23.1915 69.8962 27.3613 
488 2 21.5824 67.1093 27.3613 
489 2 24.8005 65.2513 24.7337 
490 2 26.4095 68.0383 24.7337 
491 2 26.4095 69.8962 27.3613 
492 2 24.8005 67.1093 27.3613 
493 2 28.0186 65.2513 24.7337 
494 2 29.6276 68.0383 24.7337 
495 2 29.6276 69.8962 27.3613 
496 2 28.0186 67.1093 27.3613 
497 2 31.2367 65.2513 24.7337 
498 2 32.8457 68.0383 24.7337 
499 2 32.8457 69.8962 27.3613 
500 2 31.2367 67.1093 27.3613 
501 2 34.4548 65.2513 24.7337 
502 2 36.0638 68.0383 24.7337 
503 2 36.0638 69.8962 27.3613 
504 2 34.4548 67.1093 27.3613 
505 2 37.6729 65.2513 24.7337 
506 2 39.2819 68.0383 24.7337 
507 2 39.2819 69.8962 27.3613 
508 2 37.6729 67.1093 27.3613 
509 2 40.891 65.2513 24.7337 
510 2 42.5 68.0383 24.7337 
511 2 42.5 69.8962 27.3613 
512 2 40.891 67.1093 27.3613 
513 2 44.109 65.2513 24.7337 
514 2 45.7181 68.0383 24.7337 
515 2 45.7181 69.8962 27.3613 
516 2 44.109 67.1093 27.3613 
517 2 47.3271 65.2513 24.7337 
518 2 48.9362 68.0383 24.7337 
519 2 48.9362 69.8962 27.3613 
520 2 47.3271 67.1093 27.3613 
521 2 50.5452 65.2513 24.7337 
522 2 52.1543 68.0383 24.7337 
523 2 52.1543 69.8962 27.3613 
524 2 50.5452 67.1093 27.3613 
525 2 53.7633 65.2513 24.7337 
526 2 55.3724 68.0383 24.7337 
527 2 55.3724 69.8962 27.3613 
528 2 53.7633 67.1093 27.3613 
529 2 56.9814 65.2513 24.7337 
530 2 58.5905 68.0383 24.7337 
531 2 58.5905 69.8962 27.3613 
532 2 56.9814 67.1093 27.3613 
533 2 60.1995 65.2513 24.7337 
534 2 61.8085 68.0383 24.7337 
535 2 61.8085 69.8962 27.3613 
536 2 60.1995 67.1093 27.3613 
537 2 63.4176 65.2513 24.7337 
538 2 65.0266 68.0383 24.7337 
539 2 65.0266 69.8962 27.3613 
540 2 63.4176 67.1093 27.3613 
541 2 66.6357 65.2513 24.7337 
542 2 68.2447 68.0383 24.7337 
543 2 68.2447 69.8962 27.3613 
544 2 66.6357 67.1093 27.3613 
545 2 15.1462 70.8252 24.7337 
546 2 16.7553 73.6122 24.7337 
547 2 16.7553 75.4701 27.3613 
548 2 15.1462 72.6832 27.3613 
549 2 18.3643 70.8252 24.7337 
550 2 19.9734 73.6122 24.7337 
551 2 19.9734 75.4701 27.3613 
552 2 18.3643 72.6832 27.3613 
553 2 21.5824 70.8252 24.7337 
554 2 23.1915 73.6122 24.7337 
555 2 23.1915 75.4701 27.3613 
556 2 21.5824 72.6832 27.3613 
557 2 24.8005 70.8252 24.7337 
558 2 26.4095 73.6122 24.7337 
559 2 26.4095 75.4701 27.3613 
560 2 24.8005 72.6832 27.3613 
561 2 28.0186 70.8252 24.7337 
562 2 29.6276 73.6122 24.7337 
563 2 29.6276 75.4701 27.3613 
564 2 28.0186 72.6832 27.3613 
565 2 31.2367 70.8252 24.7337 
566 2 32.8457 73.6122 24.7337 
567 2 32.8457 75.4701 27.3613 
568 2 31.2367 72.6832 27.3613 
569 2 34.4548 70.8252 24.7337 
570 2 36.0638 73.6122 24.7337 
571 2 36.0638 75.4701 27.3613 
572 2 34.4548 72.6832 27.3613 
573 2 37.6729 70.8252 24.7337 
574 2 39.2819 73.6122 24.7337 
575 2 39.2819 75.4701 27.3613 
576 2 37.6729 72.6832 27.3613 
577 2 40.891 70.8252 24.7337 
578 2 42.5 73.6122 24.7337 
579 2 42.5 75.4701 27.3613 
580 2 40.891 72.6832 27.3613 
581 2 44.109 70.8252 24.7337 
582 2 45.7181 73.6122 24.7337 
583 2 45.7181 75.4701 27.3613 
584 2 44.109 72.6832 27.3613 
585 2 47.3271 70.8252 24.7337 
586 2 48.9362 73.6122 24.7337 
587 2 48.9362 75.4701 27.3613 
588 2 47.3271 72.6832 27.3613 
589 2 50.5452 70.8252 24.7337 
590 2 52.1543 73.6122 24.7337 
591 2 52.1543 75.4701 27.3613 
592 2 50.5452 72.6832 27.3613 
593 2 53.7633 70.8252 24.7337 
594 2 55.3724 73.6122 24.7337 
595 2 55.3724 75.4701 27.3613 
596 2 53.7633 72.6832 27.3613 
597 2 56.9814 70.8252 24.7337 
598 2 58.5905 73.6122 24.7337 
599 2 58.5905 75.4701 27.3613 
600 2 56.9814 72.6832 27.3613 
601 2 60.1995 70.8252 24.7337 
602 2 61.8085 73.6122 24.7337 
603 2 61.8085 75.4701 27.3613 
604 2 60.1995 72.6832 27.3613 
605 2 63.4176 70.8252 24.7337 
606 2 65.0266 73.6122 24.7337 
607 2 65.0266 75.4701 27.3613 
608 2 63.4176 72.6832 27.3613 
609 2 66.6357 70.8252 24.7337 
610 2 68.2447 73.6122 24.7337 
611 2 68.2447 75.4701 27.3613 
612 2 66.6357 72.6832 27.3613 
613 2 15.1462 76.3991 24.7337 
614 2 16.7553 79.1861 24.7337 
615 2 16.7553 81.044 27.3613 
616 2 15.1462 78.2571 27.3613 
617 2 18.3643 76.3991 24.7337 
618 2 19.9734 79.1861 24.7337 
619 2 19.9734 81.044 27.3613 
620 2 18.3643 78.2571 27.3613 
621 2 21.5824 76.3991 24.7337 
622 2 23.1915 79.1861 24.7337 
623 2 23.1915 81.044 27.3613 
624 2 21.5824 78.2571 27.3613 
625 2 24.8005 76.3991 24.7337 
626 2 26.4095 79.1861 24.7337 
627 2 26.4095 81.044 27.3613 
628 2 24.8005 78.2571 27.3613 
629 2 28.0186 76.3991 24.7337 
630 2 29.6276 79.1861 24.7337 
631 2 29.6276 81.044 27.3613 
632 2 28.0186 78.2571 27.3613 
633 2 31.2367 76.3991 24.7337 
634 2 32.8457 79.1861 24.7337 
635 2 32.8457 81.044 27.3613 
636 2 31.2367 78.2571 27.3613 
637 2 34.4548 76.3991 24.7337 
638 2 36.0638 79.1861 24.7337 
639 2 36.0638 81.044 27.3613 
640 2 34.4548 78.2571 27.3613 
641 2 37.6729 76.3991 24.7337 
642 2 39.2819 79.1861 24.7337 
643 2 39.2819 81.044 27.3613 
644 2 37.6729 78.2571 27.3613 
645 2 40.891 76.3991 24.7337 
646 2 42.5 79.1861 24.7337 
647 2 42.5 81.044 27.3613 
648 2 40.891 78.2571 27.3613 
649 2 44.109 76.3991 24.7337 
650 2 45.7181 79.1861 24.7337 
651 2 45.7181 81.044 27.3613 
652 2 44.109 78.2571 27.3613 
653 2 47.3271 76.3991 24.7337 
654 2 48.9362 79.1861 24.7337 
655 2 48.9362 81.044 27.3613 
656 2 47.3271 78.2571 27.3613 
657 2 50.5452 76.3991 24.7337 
658 2 52.1543 79.1861 24.7337 
659 2 52.1543 81.044 27.3613 
660 2 50.5452 78.2571 27.3613 
661 2 53.7633 76.3991 24.7337 
662 2 55.3724 79.1861 24.7337 
663 2 55.3724 81.044 27.3613 
664 2 53.7633 78.2571 27.3613 
665 2 56.9814 76.3991 24.7337 
666 2 58.5905 79.1861 24.7337 
667 2 58.5905 81.044 27.3613 
668 2 56.9814 78.2571 27.3613 
669 2 60.1995 76.3991 24.7337 
670 2 61.8085 79.1861 24.7337 
671 2 61.8085 81.044 27.3613 
672 2 60.1995 78.2571 27.3613 
673 2 63.4176 76.3991 24.7337 
674 2 65.0266 79.1861 24.7337 
675 2 65.0266 81.044 27.3613 
676 2 63.4176 78.2571 27.3613 
677 2 66.6357 76.3991 24.7337 
678 2 68.2447 79.1861 24.7337 
679 2 68.2447 81.044 27.3613 
680 2 66.6357 78.2571 27.3613 
681 2 15.1462 81.973 24.7337 
682 2 16.7553 84.76 24.7337 
683 2 16.7553 86.6179 27.3613 
684 2 15.1462 83.831 27.3613 
685 2 18.3643 81.973 24.7337 
686 2 19.9734 84.76 24.7337 
687 2 19.9734 86.6179 27.3613 
688 2 18.3643 83.831 27.3613 
689 2 21.5824 81.973 24.7337 
690 2 23.1915 84.76 24.7337 
691 2 23.1915 86.6179 27.3613 
692 2 21.5824 83.831 27.3613 
693 2 24.8005 81.973 24.7337 
694 2 26.4095 84.76 24.7337 
695 2 26.4095 86.6179 27.3613 
696 2 24.8005 83.831 27.3613 
697 2 28.0186 81.973 24.7337 
698 2 29.6276 84.76 24.7337 
699 2 29.6276 86.6179 27.3613 
700 2 28.0186 83.831 27.3613 
701 2 31.2367 81.973 24.7337 
702 2 32.8457 84.76 24.7337 
703 2 32.8457 86.6179 27.3613 
704 2 31.2367 83.831 27.3613 
705 2 34.4548 81.973 24.7337 
706 2 36.0638 84.76 24.7337 
707 2 36.0638 86.6179 27.3613 
708 2 34.4548 83.831 27.3613 
709 2 37.6729 81.973 24.7337 
710 2 39.2819 84.76 24.7337 
711 2 39.2819 86.6179 27.3613 
712 2 37.6729 83.831 27.3613 
713 2 40.891 81.973 24.7337 
714 2 42.5 84.76 24.7337 
715 2 42.5 86.6179 27.3613 
716 2 40.891 83.831 27.3613 
717 2 44.109 81.973 24.7337 
718 2 45.7181 84.76 24.7337 
719 2 45.7181 86.6179 27.3613 
720 2 44.109 83.831 27.3613 
721 2 47.3271 81.973 24.7337 
722 2 48.9362 84.76 24.7337 
723 2 48.9362 86.6179 27.3613 
724 2 47.3271 83.831 27.3613 
725 2 50.5452 81.973 24.7337 
726 2 52.1543 84.76 24.7337 
727 2 52.1543 86.6179 27.3613 
728 2 50.5452 83.831 27.3613 
729 2 53.7633 81.973 24.7337 
730 2 55.3724 84.76 24.7337 
731 2 55.3724 86.6179 27.3613 
732 2 53.7633 83.831 27.3613 
733 2 56.9814 81.973 24.7337 
734 2 58.5905 84.76 24.7337 
735 2 58.5905 86.6179 27.3613 
736 2 56.9814 83.831 27.3613 
737 2 60.1995 81.973 24.7337 
738 2 61.8085 84.76 24.7337 
739 2 61.8085 86.6179 27.3613 
740 2 60.1995 83.831 27.3613 
741 2 63.4176 81.973 24.7337 
742 2 65.0266 84.76 24.7337 
743 2 65.0266 86.6179 27.3613 
744 2 63.4176 83.831 27.3613 
745 2 66.6357 81.973 24.7337 
746 2 68.2447 84.76 24.7337 
747 2 68.2447 86.6179 27.3613 
748 2 66.6357 83.831 27.3613 
749 2 15.1462 87.5469 24.7337 
750 2 16.7553 90.3338 24.7337 
751 2 16.7553 92.1918 27.3613 
752 2 15.1462 89.4049 27.3613 
753 2 18.3643 87.5469 24.7337 
754 2 19.9734 90.3338 24.7337 
755 2 19.9734 92.1918 27.3613 
756 2 18.3643 89.4049 27.3613 
757 2 21.5824 87.5469 24.7337 
758 2 23.1915 90.3338 24.7337 
759 2 23.1915 92.1918 27.3613 
760 2 21.5824 89.4049 27.3613 
761 2 24.8005 87.5469 24.7337 
762 2 26.4095 90.3338 24.7337 
763 2 26.4095 92.1918 27.3613 
764 2 24.8005 89.4049 27.3613 
765 2 28.0186 87.5469 24.7337 
766 2 29.6276 90.3338 24.7337 
767 2 29.6276 92.1918 27.3613 
768 2 28.0186 89.4049 27.3613 
769 2 31.2367 87.5469 24.7337 
770 2 32.8457 90.3338 24.7337 
771 2 32.8457 92.1918 27.3613 
772 2 31.2367 89.4049 27.3613 
773 2 34.4548 87.5469 24.7337 
774 2 36.0638 90.3338 24.7337 
775 2 36.0638 92.1918 27.3613 
776 2 34.4548 89.4049 27.3613 
777 2 37.6729 87.5469 24.7337 
778 2 39.2819 90.3338 24.7337 
779 2 39.2819 92.1918 27.3613 
780 2 37.6729 89.4049 27.3613 
781 2 40.891 87.5469 24.7337 
782 2 42.5 90.3338 24.7337 
783 2 42.5 92.1918 27.3613 
784 2 40.891 89.4049 27.3613 
785 2 44.109 87.5469 24.7337 
786 2 45.7181 90.3338 24.7337 
787 2 45.7181 92.1918 27.3613 
788 2 44.109 89.4049 27.3613 
789 2 47.3271 87.5469 24.7337 
790 2 48.9362 90.3338 24.7337 
791 2 48.9362 92.1918 27.3613 
792 2 47.3271 89.4049 27.3613 
793 2 50.5452 87.5469 24.7337 
794 2 52.1543 90.3338 24.7337 
795 2 52.1543 92.1918 27.3613 
796 2 50.5452 89.4049 27.3613 
797 2 53.7633 87.5469 24.7337 
798 2 55.3724 90.3338 24.7337 
799 2 55.3724 92.1918 27.3613 
800 2 53.7633 89.4049 27.3613 
801 2 56.9814 87.5469 24.7337 
802 2 58.5905 90.3338 24.7337 
803 2 58.5905 92.1918 27.3613 
804 2 56.9814 89.4049 27.3613 
805 2 60.1995 87.5469 24.7337 
806 2 61.8085 90.3338 24.7337 
807 2 61.8085 92.1918 27.3613 
808 2 60.1995 89.4049 27.3613 
809 2 63.4176 87.5469 24.7337 
810 2 65.0266 90.3338 24.7337 
811 2 65.0266 92.1918 27.3613 
812 2 63.4176 89.4049 27.3613 
813 2 66.6357 87.5469 24.7337 
814 2 68.2447 90.3338 24.7337 
815 2 68.2447 92.1918 27.3613 
816 2 66.6357 89.4049 27.3613 
817 2 15.1462 93.1208 24.7337 
818 2 16.7553 95.9077 24.7337 
819 2 16.7553 97.7657 27.3613 
820 2 15.1462 94.9788 27.3613 
821 2 18.3643 93.1208 24.7337 
822 2 19.9734 95.9077 24.7337 
823 2 19.9734 97.7657 27.3613 
824 2 18.3643 94.9788 27.3613 
825 2 21.5824 93.1208 24.7337 
826 2 23.1915 95.9077 24.7337 
827 2 23.1915 97.7657 27.3613 
828 2 21.5824 94.9788 27.3613 
829 2 24.8005 93.1208 24.7337 
830 2 26.4095 95.9077 24.7337 
831 2 26.4095 97.7657 27.3613 
832 2 24.8005 94.9788 27.3613 
833 2 28.0186 93.1208 24.7337 
834 2 29.6276 95.9077 24.7337 
835 2 29.6276 97.7657 27.3613 
836 2 28.0186 94.9788 27.3613 
837 2 31.2367 93.1208 24.7337 
838 2 32.8457 95.9077 24.7337 
839 2 32.8457 97.7657 27.3613 
840 2 31.2367 94.9788 27.3613 
841 2 34.4548 93.1208 24.7337 
842 2 36.0638 95.9077 24.7337 
843 2 36.0638 97.7657 27.3613 
844 2 34.4548 94.9788 27.3613 
845 2 37.6729 93.1208 24.7337 
846 2 39.2819 95.9077 24.7337 
847 2 39.2819 97.7657 27.3613 
848 2 37.6729 94.9788 27.3613 
849 2 40.891 93.1208 24.7337 
850 2 42.5 95.9077 24.7337 
851 2 42.5 97.7657 27.3613 
852 2 40.891 94.9788 27.3613 
853 2 44.109 93.1208 24.7337 
854 2 45.7181 95.9077 24.7337 
855 2 45.7181 97.7657 27.3613 
856 2 44.109 94.9788 27.3613 
857 2 47.3271 93.1208 24.7337 
858 2 48.9362 95.9077 24.7337 
859 2 48.9362 97.7657 27.3613 
860 2 47.3271 94.9788 27.3613 
861 2 50.5452 93.1208 24.7337 
862 2 52.1543 95.9077 24.7337 
863 2 52.1543 97.7657 27.3613 
864 2 50.5452 94.9788 27.3613 
865 2 53.7633 93.1208 24.7337 
866 2 55.3724 95.9077 24.7337 
867 2 55.3724 97.7657 27.3613 
868 2 53.7633 94.9788 27.3613 
869 2 56.9814 93.1208 24.7337 
870 2 58.5905 95.9077 24.7337 
871 2 58.5905 97.7657 27.3613 
872 2 56.9814 94.9788 27.3613 
873 2 60.1995 93.1208 24.7337 
874 2 61.8085 95.9077 24.7337 
875 2 61.8085 97.7657 27.3613 
876 2 60.1995 94.9788 27.3613 
877 2 63.4176 93.1208 24.7337 
878 2 65.0266 95.9077 24.7337 
879 2 65.0266 97.7657 27.3613 
880 2 63.4176 94.9788 27.3613 
881 2 66.6357 93.1208 24.7337 
882 2 68.2447 95.9077 24.7337 
883 2 68.2447 97.7657 27.3613 
884 2 66.6357 94.9788 27.3613 
885 2 15.1462 98.6947 24.7337 
886 2 16.7553 101.482 24.7337 
887 2 16.7553 103.34 27.3613 
888 2 15.1462 100.553 27.3613 
889 2 18.3643 98.6947 24.7337 
890 2 19.9734 101.482 24.7337 
891 2 19.9734 103.34 27.3613 
892 2 18.3643 100.553 27.3613 
893 2 21.5824 98.6947 24.7337 
894 2 23.1915 101.482 24.7337 
895 2 23.1915 103.34 27.3613 
896 2 21.5824 100.553 27.3613 
897 2 24.8005 98.6947 24.7337 
898 2 26.4095 101.482 24.7337 
899 2 26.4095 103.34 27.3613 
900 2 24.8005 100.553 27.3613 
901 2 28.0186 98.6947 24.7337 
902 2 29.6276 101.482 24.7337 
903 2 29.6276 103.34 27.3613 
904 2 28.0186 100.553 27.3613 
905 2 31.2367 98.6947 24.7337 
906 2 32.8457 101.482 24.7337 
907 2 32.8457 103.34 27.3613 
908 2 31.2367 100.553 27.3613 
909 2 34.4548 98.6947 24.7337 
910 2 36.0638 101.482 24.7337 
911 2 36.0638 103.34 27.3613 
912 2 34.4548 100.553 27.3613 
913 2 37.6729 98.6947 24.7337 
914 2 39.2819 101.482 24.7337 
915 2 39.2819 103.34 27.3613 
916 2 37.6729 100.553 27.3613 
917 2 40.891 98.6947 24.7337 
918 2 42.5 101.482 24.7337 
919 2 42.5 103.34 27.3613 
920 2 40.891 100.553 27.3613 
921 2 44.109 98.6947 24.7337 
922 2 45.7181 101.482 24.7337 
923 2 45.7181 103.34 27.3613 
924 2 44.109 100.553 27.3613 
925 2 47.3271 98.6947 24.7337 
926 2 48.9362 101.482 24.7337 
927 2 48.9362 103.34 27.3613 
928 2 47.3271 100.553 27.3613 
929 2 50.5452 98.6947 24.7337 
930 2 52.1543 101.482 24.7337 
931 2 52.1543 103.34 27.3613 
932 2 50.5452 100.553 27.3613 
933 2 53.7633 98.6947 24.7337 
934 2 55.3724 101.482 24.7337 
935 2 55.3724 103.34 27.3613 
936 2 53.7633 100.553 27.3613 
937 2 56.9814 98.6947 24.7337 
938 2 58.5905 101.482 24.7337 
939 2 58.5905 103.34 27.3613 
940 2 56.9814 100.553 27.3613 
941 2 60.1995 98.6947 24.7337 
942 2 61.8085 101.482 24.7337 
943 2 61.8085 103.34 27.3613 
944 2 60.1995 100.553 27.3613 
945 2 63.4176 98.6947 24.7337 
946 2 65.0266 101.482 24.7337 
947 2 65.0266 103.34 27.3613 
948 2 63.4176 100.553 27.3613 
949 2 66.6357 98.6947 24.7337 
950 2 68.2447 101.482 24.7337 
951 2 68.2447 103.34 27.3613 
952 2 66.6357 100.553 27.3613 
953 2 15.1462 104.269 24.7337 
954 2 16.7553 107.056 24.7337 
955 2 16.7553 108.913 27.3613 
956 2 15.1462 106.127 27.3613 
957 2 18.3643 104.269 24.7337 
958 2 19.9734 107.056 24.7337 
959 2 19.9734 108.913 27.3613 
960 2 18.3643 106.127 27.3613 
961 2 21.5824 104.269 24.7337 
962 2 23.1915 107.056 24.7337 
963 2 23.1915 108.913 27.3613 
964 2 21.5824 106.127 27.3613 
965 2 24.8005 104.269 24.7337 
966 2 26.4095 107.056 24.7337 
967 2 26.4095 108.913 27.3613 
968 2 24.8005 106.127 27.3613 
969 2 28.0186 104.269 24.7337 
970 2 29.6276 107.056 24.7337 
971 2 29.6276 108.913 27.3613 
972 2 28.0186 106.127 27.3613 
973 2 31.2367 104.269 24.7337 