ITEM: TIMESTEP
104
ITEM: NUMBER OF ATOMS
19652
ITEM: BOX BOUNDS pp pp pp
2.1384100293993495e+01 6.3615899706006218e+01
3.7038348183345043e+01 1.1018597046000984e+02
3.4920089552522413e+01 1.0388432920519089e+02
ITEM: ATOMS id type xu yu zu 
1 1 21.3841 37.0383 34.9201 
2 1 22.6262 39.1897 34.9201 
3 1 22.6262 40.624 36.9484 
4 1 21.3841 38.4726 36.9484 
5 1 23.8683 37.0383 34.9201 
6 1 25.1104 39.1897 34.9201 
7 1 25.1104 40.624 36.9484 
8 1 23.8683 38.4726 36.9484 
9 1 26.3525 37.0383 34.9201 
10 1 27.5947 39.1897 34.9201 
11 1 27.5947 40.624 36.9484 
12 1 26.3525 38.4726 36.9484 
13 1 28.8368 37.0383 34.9201 
14 1 30.0789 39.1897 34.9201 
15 1 30.0789 40.624 36.9484 
16 1 28.8368 38.4726 36.9484 
17 1 31.321 37.0383 34.9201 
18 1 32.5631 39.1897 34.9201 
19 1 32.5631 40.624 36.9484 
20 1 31.321 38.4726 36.9484 
21 1 33.8052 37.0383 34.9201 
22 1 35.0473 39.1897 34.9201 
23 1 35.0473 40.624 36.9484 
24 1 33.8052 38.4726 36.9484 
25 1 36.2894 37.0383 34.9201 
26 1 37.5316 39.1897 34.9201 
27 1 37.5316 40.624 36.9484 
28 1 36.2894 38.4726 36.9484 
29 1 38.7737 37.0383 34.9201 
30 1 40.0158 39.1897 34.9201 
31 1 40.0158 40.624 36.9484 
32 1 38.7737 38.4726 36.9484 
33 1 41.2579 37.0383 34.9201 
34 1 42.5 39.1897 34.9201 
35 1 42.5 40.624 36.9484 
36 1 41.2579 38.4726 36.9484 
37 1 43.7421 37.0383 34.9201 
38 1 44.9842 39.1897 34.9201 
39 1 44.9842 40.624 36.9484 
40 1 43.7421 38.4726 36.9484 
41 1 46.2263 37.0383 34.9201 
42 1 47.4684 39.1897 34.9201 
43 1 47.4684 40.624 36.9484 
44 1 46.2263 38.4726 36.9484 
45 1 48.7106 37.0383 34.9201 
46 1 49.9527 39.1897 34.9201 
47 1 49.9527 40.624 36.9484 
48 1 48.7106 38.4726 36.9484 
49 1 51.1948 37.0383 34.9201 
50 1 52.4369 39.1897 34.9201 
51 1 52.4369 40.624 36.9484 
52 1 51.1948 38.4726 36.9484 
53 1 53.679 37.0383 34.9201 
54 1 54.9211 39.1897 34.9201 
55 1 54.9211 40.624 36.9484 
56 1 53.679 38.4726 36.9484 
57 1 56.1632 37.0383 34.9201 
58 1 57.4053 39.1897 34.9201 
59 1 57.4053 40.624 36.9484 
60 1 56.1632 38.4726 36.9484 
61 1 58.6475 37.0383 34.9201 
62 1 59.8896 39.1897 34.9201 
63 1 59.8896 40.624 36.9484 
64 1 58.6475 38.4726 36.9484 
65 1 61.1317 37.0383 34.9201 
66 1 62.3738 39.1897 34.9201 
67 1 62.3738 40.624 36.9484 
68 1 61.1317 38.4726 36.9484 
69 1 21.3841 41.3411 34.9201 
70 1 22.6262 43.4926 34.9201 
71 1 22.6262 44.9268 36.9484 
72 1 21.3841 42.7754 36.9484 
73 1 23.8683 41.3411 34.9201 
74 1 25.1104 43.4926 34.9201 
75 1 25.1104 44.9268 36.9484 
76 1 23.8683 42.7754 36.9484 
77 1 26.3525 41.3411 34.9201 
78 1 27.5947 43.4926 34.9201 
79 1 27.5947 44.9268 36.9484 
80 1 26.3525 42.7754 36.9484 
81 1 28.8368 41.3411 34.9201 
82 1 30.0789 43.4926 34.9201 
83 1 30.0789 44.9268 36.9484 
84 1 28.8368 42.7754 36.9484 
85 1 31.321 41.3411 34.9201 
86 1 32.5631 43.4926 34.9201 
87 1 32.5631 44.9268 36.9484 
88 1 31.321 42.7754 36.9484 
89 1 33.8052 41.3411 34.9201 
90 1 35.0473 43.4926 34.9201 
91 1 35.0473 44.9268 36.9484 
92 1 33.8052 42.7754 36.9484 
93 1 36.2894 41.3411 34.9201 
94 1 37.5316 43.4926 34.9201 
95 1 37.5316 44.9268 36.9484 
96 1 36.2894 42.7754 36.9484 
97 1 38.7737 41.3411 34.9201 
98 1 40.0158 43.4926 34.9201 
99 1 40.0158 44.9268 36.9484 
100 1 38.7737 42.7754 36.9484 
101 1 41.2579 41.3411 34.9201 
102 1 42.5 43.4926 34.9201 
103 1 42.5 44.9268 36.9484 
104 1 41.2579 42.7754 36.9484 
105 1 43.7421 41.3411 34.9201 
106 1 44.9842 43.4926 34.9201 
107 1 44.9842 44.9268 36.9484 
108 1 43.7421 42.7754 36.9484 
109 1 46.2263 41.3411 34.9201 
110 1 47.4684 43.4926 34.9201 
111 1 47.4684 44.9268 36.9484 
112 1 46.2263 42.7754 36.9484 
113 1 48.7106 41.3411 34.9201 
114 1 49.9527 43.4926 34.9201 
115 1 49.9527 44.9268 36.9484 
116 1 48.7106 42.7754 36.9484 
117 1 51.1948 41.3411 34.9201 
118 1 52.4369 43.4926 34.9201 
119 1 52.4369 44.9268 36.9484 
120 1 51.1948 42.7754 36.9484 
121 1 53.679 41.3411 34.9201 
122 1 54.9211 43.4926 34.9201 
123 1 54.9211 44.9268 36.9484 
124 1 53.679 42.7754 36.9484 
125 1 56.1632 41.3411 34.9201 
126 1 57.4053 43.4926 34.9201 
127 1 57.4053 44.9268 36.9484 
128 1 56.1632 42.7754 36.9484 
129 1 58.6475 41.3411 34.9201 
130 1 59.8896 43.4926 34.9201 
131 1 59.8896 44.9268 36.9484 
132 1 58.6475 42.7754 36.9484 
133 1 61.1317 41.3411 34.9201 
134 1 62.3738 43.4926 34.9201 
135 1 62.3738 44.9268 36.9484 
136 1 61.1317 42.7754 36.9484 
137 1 21.3841 45.644 34.9201 
138 1 22.6262 47.7954 34.9201 
139 1 22.6262 49.2296 36.9484 
140 1 21.3841 47.0782 36.9484 
141 1 23.8683 45.644 34.9201 
142 1 25.1104 47.7954 34.9201 
143 1 25.1104 49.2296 36.9484 
144 1 23.8683 47.0782 36.9484 
145 1 26.3525 45.644 34.9201 
146 1 27.5947 47.7954 34.9201 
147 1 27.5947 49.2296 36.9484 
148 1 26.3525 47.0782 36.9484 
149 1 28.8368 45.644 34.9201 
150 1 30.0789 47.7954 34.9201 
151 1 30.0789 49.2296 36.9484 
152 1 28.8368 47.0782 36.9484 
153 1 31.321 45.644 34.9201 
154 1 32.5631 47.7954 34.9201 
155 1 32.5631 49.2296 36.9484 
156 1 31.321 47.0782 36.9484 
157 1 33.8052 45.644 34.9201 
158 1 35.0473 47.7954 34.9201 
159 1 35.0473 49.2296 36.9484 
160 1 33.8052 47.0782 36.9484 
161 1 36.2894 45.644 34.9201 
162 1 37.5316 47.7954 34.9201 
163 1 37.5316 49.2296 36.9484 
164 1 36.2894 47.0782 36.9484 
165 1 38.7737 45.644 34.9201 
166 1 40.0158 47.7954 34.9201 
167 1 40.0158 49.2296 36.9484 
168 1 38.7737 47.0782 36.9484 
169 1 41.2579 45.644 34.9201 
170 1 42.5 47.7954 34.9201 
171 1 42.5 49.2296 36.9484 
172 1 41.2579 47.0782 36.9484 
173 1 43.7421 45.644 34.9201 
174 1 44.9842 47.7954 34.9201 
175 1 44.9842 49.2296 36.9484 
176 1 43.7421 47.0782 36.9484 
177 1 46.2263 45.644 34.9201 
178 1 47.4684 47.7954 34.9201 
179 1 47.4684 49.2296 36.9484 
180 1 46.2263 47.0782 36.9484 
181 1 48.7106 45.644 34.9201 
182 1 49.9527 47.7954 34.9201 
183 1 49.9527 49.2296 36.9484 
184 1 48.7106 47.0782 36.9484 
185 1 51.1948 45.644 34.9201 
186 1 52.4369 47.7954 34.9201 
187 1 52.4369 49.2296 36.9484 
188 1 51.1948 47.0782 36.9484 
189 1 53.679 45.644 34.9201 
190 1 54.9211 47.7954 34.9201 
191 1 54.9211 49.2296 36.9484 
192 1 53.679 47.0782 36.9484 
193 1 56.1632 45.644 34.9201 
194 1 57.4053 47.7954 34.9201 
195 1 57.4053 49.2296 36.9484 
196 1 56.1632 47.0782 36.9484 
197 1 58.6475 45.644 34.9201 
198 1 59.8896 47.7954 34.9201 
199 1 59.8896 49.2296 36.9484 
200 1 58.6475 47.0782 36.9484 
201 1 61.1317 45.644 34.9201 
202 1 62.3738 47.7954 34.9201 
203 1 62.3738 49.2296 36.9484 
204 1 61.1317 47.0782 36.9484 
205 1 21.3841 49.9468 34.9201 
206 1 22.6262 52.0982 34.9201 
207 1 22.6262 53.5324 36.9484 
208 1 21.3841 51.381 36.9484 
209 1 23.8683 49.9468 34.9201 
210 1 25.1104 52.0982 34.9201 
211 1 25.1104 53.5324 36.9484 
212 1 23.8683 51.381 36.9484 
213 1 26.3525 49.9468 34.9201 
214 1 27.5947 52.0982 34.9201 
215 1 27.5947 53.5324 36.9484 
216 1 26.3525 51.381 36.9484 
217 1 28.8368 49.9468 34.9201 
218 1 30.0789 52.0982 34.9201 
219 1 30.0789 53.5324 36.9484 
220 1 28.8368 51.381 36.9484 
221 1 31.321 49.9468 34.9201 
222 1 32.5631 52.0982 34.9201 
223 1 32.5631 53.5324 36.9484 
224 1 31.321 51.381 36.9484 
225 1 33.8052 49.9468 34.9201 
226 1 35.0473 52.0982 34.9201 
227 1 35.0473 53.5324 36.9484 
228 1 33.8052 51.381 36.9484 
229 1 36.2894 49.9468 34.9201 
230 1 37.5316 52.0982 34.9201 
231 1 37.5316 53.5324 36.9484 
232 1 36.2894 51.381 36.9484 
233 1 38.7737 49.9468 34.9201 
234 1 40.0158 52.0982 34.9201 
235 1 40.0158 53.5324 36.9484 
236 1 38.7737 51.381 36.9484 
237 1 41.2579 49.9468 34.9201 
238 1 42.5 52.0982 34.9201 
239 1 42.5 53.5324 36.9484 
240 1 41.2579 51.381 36.9484 
241 1 43.7421 49.9468 34.9201 
242 1 44.9842 52.0982 34.9201 
243 1 44.9842 53.5324 36.9484 
244 1 43.7421 51.381 36.9484 
245 1 46.2263 49.9468 34.9201 
246 1 47.4684 52.0982 34.9201 
247 1 47.4684 53.5324 36.9484 
248 1 46.2263 51.381 36.9484 
249 1 48.7106 49.9468 34.9201 
250 1 49.9527 52.0982 34.9201 
251 1 49.9527 53.5324 36.9484 
252 1 48.7106 51.381 36.9484 
253 1 51.1948 49.9468 34.9201 
254 1 52.4369 52.0982 34.9201 
255 1 52.4369 53.5324 36.9484 
256 1 51.1948 51.381 36.9484 
257 1 53.679 49.9468 34.9201 
258 1 54.9211 52.0982 34.9201 
259 1 54.9211 53.5324 36.9484 
260 1 53.679 51.381 36.9484 
261 1 56.1632 49.9468 34.9201 
262 1 57.4053 52.0982 34.9201 
263 1 57.4053 53.5324 36.9484 
264 1 56.1632 51.381 36.9484 
265 1 58.6475 49.9468 34.9201 
266 1 59.8896 52.0982 34.9201 
267 1 59.8896 53.5324 36.9484 
268 1 58.6475 51.381 36.9484 
269 1 61.1317 49.9468 34.9201 
270 1 62.3738 52.0982 34.9201 
271 1 62.3738 53.5324 36.9484 
272 1 61.1317 51.381 36.9484 
273 1 21.3841 54.2496 34.9201 
274 1 22.6262 56.401 34.9201 
275 1 22.6262 57.8352 36.9484 
276 1 21.3841 55.6838 36.9484 
277 1 23.8683 54.2496 34.9201 
278 1 25.1104 56.401 34.9201 
279 1 25.1104 57.8352 36.9484 
280 1 23.8683 55.6838 36.9484 
281 1 26.3525 54.2496 34.9201 
282 1 27.5947 56.401 34.9201 
283 1 27.5947 57.8352 36.9484 
284 1 26.3525 55.6838 36.9484 
285 1 28.8368 54.2496 34.9201 
286 1 30.0789 56.401 34.9201 
287 1 30.0789 57.8352 36.9484 
288 1 28.8368 55.6838 36.9484 
289 1 31.321 54.2496 34.9201 
290 1 32.5631 56.401 34.9201 
291 1 32.5631 57.8352 36.9484 
292 1 31.321 55.6838 36.9484 
293 1 33.8052 54.2496 34.9201 
294 1 35.0473 56.401 34.9201 
295 1 35.0473 57.8352 36.9484 
296 1 33.8052 55.6838 36.9484 
297 1 36.2894 54.2496 34.9201 
298 1 37.5316 56.401 34.9201 
299 1 37.5316 57.8352 36.9484 
300 1 36.2894 55.6838 36.9484 
301 1 38.7737 54.2496 34.9201 
302 1 40.0158 56.401 34.9201 
303 1 40.0158 57.8352 36.9484 
304 1 38.7737 55.6838 36.9484 
305 1 41.2579 54.2496 34.9201 
306 1 42.5 56.401 34.9201 
307 1 42.5 57.8352 36.9484 
308 1 41.2579 55.6838 36.9484 
309 1 43.7421 54.2496 34.9201 
310 1 44.9842 56.401 34.9201 
311 1 44.9842 57.8352 36.9484 
312 1 43.7421 55.6838 36.9484 
313 1 46.2263 54.2496 34.9201 
314 1 47.4684 56.401 34.9201 
315 1 47.4684 57.8352 36.9484 
316 1 46.2263 55.6838 36.9484 
317 1 48.7106 54.2496 34.9201 
318 1 49.9527 56.401 34.9201 
319 1 49.9527 57.8352 36.9484 
320 1 48.7106 55.6838 36.9484 
321 1 51.1948 54.2496 34.9201 
322 1 52.4369 56.401 34.9201 
323 1 52.4369 57.8352 36.9484 
324 1 51.1948 55.6838 36.9484 
325 1 53.679 54.2496 34.9201 
326 1 54.9211 56.401 34.9201 
327 1 54.9211 57.8352 36.9484 
328 1 53.679 55.6838 36.9484 
329 1 56.1632 54.2496 34.9201 
330 1 57.4053 56.401 34.9201 
331 1 57.4053 57.8352 36.9484 
332 1 56.1632 55.6838 36.9484 
333 1 58.6475 54.2496 34.9201 
334 1 59.8896 56.401 34.9201 
335 1 59.8896 57.8352 36.9484 
336 1 58.6475 55.6838 36.9484 
337 1 61.1317 54.2496 34.9201 
338 1 62.3738 56.401 34.9201 
339 1 62.3738 57.8352 36.9484 
340 1 61.1317 55.6838 36.9484 
341 1 21.3841 58.5524 34.9201 
342 1 22.6262 60.7038 34.9201 
343 1 22.6262 62.138 36.9484 
344 1 21.3841 59.9866 36.9484 
345 1 23.8683 58.5524 34.9201 
346 1 25.1104 60.7038 34.9201 
347 1 25.1104 62.138 36.9484 
348 1 23.8683 59.9866 36.9484 
349 1 26.3525 58.5524 34.9201 
350 1 27.5947 60.7038 34.9201 
351 1 27.5947 62.138 36.9484 
352 1 26.3525 59.9866 36.9484 
353 1 28.8368 58.5524 34.9201 
354 1 30.0789 60.7038 34.9201 
355 1 30.0789 62.138 36.9484 
356 1 28.8368 59.9866 36.9484 
357 1 31.321 58.5524 34.9201 
358 1 32.5631 60.7038 34.9201 
359 1 32.5631 62.138 36.9484 
360 1 31.321 59.9866 36.9484 
361 1 33.8052 58.5524 34.9201 
362 1 35.0473 60.7038 34.9201 
363 1 35.0473 62.138 36.9484 
364 1 33.8052 59.9866 36.9484 
365 1 36.2894 58.5524 34.9201 
366 1 37.5316 60.7038 34.9201 
367 1 37.5316 62.138 36.9484 
368 1 36.2894 59.9866 36.9484 
369 1 38.7737 58.5524 34.9201 
370 1 40.0158 60.7038 34.9201 
371 1 40.0158 62.138 36.9484 
372 1 38.7737 59.9866 36.9484 
373 1 41.2579 58.5524 34.9201 
374 1 42.5 60.7038 34.9201 
375 1 42.5 62.138 36.9484 
376 1 41.2579 59.9866 36.9484 
377 1 43.7421 58.5524 34.9201 
378 1 44.9842 60.7038 34.9201 
379 1 44.9842 62.138 36.9484 
380 1 43.7421 59.9866 36.9484 
381 1 46.2263 58.5524 34.9201 
382 1 47.4684 60.7038 34.9201 
383 1 47.4684 62.138 36.9484 
384 1 46.2263 59.9866 36.9484 
385 1 48.7106 58.5524 34.9201 
386 1 49.9527 60.7038 34.9201 
387 1 49.9527 62.138 36.9484 
388 1 48.7106 59.9866 36.9484 
389 1 51.1948 58.5524 34.9201 
390 1 52.4369 60.7038 34.9201 
391 1 52.4369 62.138 36.9484 
392 1 51.1948 59.9866 36.9484 
393 1 53.679 58.5524 34.9201 
394 1 54.9211 60.7038 34.9201 
395 1 54.9211 62.138 36.9484 
396 1 53.679 59.9866 36.9484 
397 1 56.1632 58.5524 34.9201 
398 1 57.4053 60.7038 34.9201 
399 1 57.4053 62.138 36.9484 
400 1 56.1632 59.9866 36.9484 
401 1 58.6475 58.5524 34.9201 
402 1 59.8896 60.7038 34.9201 
403 1 59.8896 62.138 36.9484 
404 1 58.6475 59.9866 36.9484 
405 1 61.1317 58.5524 34.9201 
406 1 62.3738 60.7038 34.9201 
407 1 62.3738 62.138 36.9484 
408 1 61.1317 59.9866 36.9484 
409 1 21.3841 62.8552 34.9201 
410 1 22.6262 65.0066 34.9201 
411 1 22.6262 66.4408 36.9484 
412 1 21.3841 64.2894 36.9484 
413 1 23.8683 62.8552 34.9201 
414 1 25.1104 65.0066 34.9201 
415 1 25.1104 66.4408 36.9484 
416 1 23.8683 64.2894 36.9484 
417 1 26.3525 62.8552 34.9201 
418 1 27.5947 65.0066 34.9201 
419 1 27.5947 66.4408 36.9484 
420 1 26.3525 64.2894 36.9484 
421 1 28.8368 62.8552 34.9201 
422 1 30.0789 65.0066 34.9201 
423 1 30.0789 66.4408 36.9484 
424 1 28.8368 64.2894 36.9484 
425 1 31.321 62.8552 34.9201 
426 1 32.5631 65.0066 34.9201 
427 1 32.5631 66.4408 36.9484 
428 1 31.321 64.2894 36.9484 
429 1 33.8052 62.8552 34.9201 
430 1 35.0473 65.0066 34.9201 
431 1 35.0473 66.4408 36.9484 
432 1 33.8052 64.2894 36.9484 
433 1 36.2894 62.8552 34.9201 
434 1 37.5316 65.0066 34.9201 
435 1 37.5316 66.4408 36.9484 
436 1 36.2894 64.2894 36.9484 
437 1 38.7737 62.8552 34.9201 
438 1 40.0158 65.0066 34.9201 
439 1 40.0158 66.4408 36.9484 
440 1 38.7737 64.2894 36.9484 
441 1 41.2579 62.8552 34.9201 
442 1 42.5 65.0066 34.9201 
443 1 42.5 66.4408 36.9484 
444 1 41.2579 64.2894 36.9484 
445 1 43.7421 62.8552 34.9201 
446 1 44.9842 65.0066 34.9201 
447 1 44.9842 66.4408 36.9484 
448 1 43.7421 64.2894 36.9484 
449 1 46.2263 62.8552 34.9201 
450 1 47.4684 65.0066 34.9201 
451 1 47.4684 66.4408 36.9484 
452 1 46.2263 64.2894 36.9484 
453 1 48.7106 62.8552 34.9201 
454 1 49.9527 65.0066 34.9201 
455 1 49.9527 66.4408 36.9484 
456 1 48.7106 64.2894 36.9484 
457 1 51.1948 62.8552 34.9201 
458 1 52.4369 65.0066 34.9201 
459 1 52.4369 66.4408 36.9484 
460 1 51.1948 64.2894 36.9484 
461 1 53.679 62.8552 34.9201 
462 1 54.9211 65.0066 34.9201 
463 1 54.9211 66.4408 36.9484 
464 1 53.679 64.2894 36.9484 
465 1 56.1632 62.8552 34.9201 
466 1 57.4053 65.0066 34.9201 
467 1 57.4053 66.4408 36.9484 
468 1 56.1632 64.2894 36.9484 
469 1 58.6475 62.8552 34.9201 
470 1 59.8896 65.0066 34.9201 
471 1 59.8896 66.4408 36.9484 
472 1 58.6475 64.2894 36.9484 
473 1 61.1317 62.8552 34.9201 
474 1 62.3738 65.0066 34.9201 
475 1 62.3738 66.4408 36.9484 
476 1 61.1317 64.2894 36.9484 
477 1 21.3841 67.158 34.9201 
478 1 22.6262 69.3094 34.9201 
479 1 22.6262 70.7436 36.9484 
480 1 21.3841 68.5922 36.9484 
481 1 23.8683 67.158 34.9201 
482 1 25.1104 69.3094 34.9201 
483 1 25.1104 70.7436 36.9484 
484 1 23.8683 68.5922 36.9484 
485 1 26.3525 67.158 34.9201 
486 1 27.5947 69.3094 34.9201 
487 1 27.5947 70.7436 36.9484 
488 1 26.3525 68.5922 36.9484 
489 1 28.8368 67.158 34.9201 
490 1 30.0789 69.3094 34.9201 
491 1 30.0789 70.7436 36.9484 
492 1 28.8368 68.5922 36.9484 
493 1 31.321 67.158 34.9201 
494 1 32.5631 69.3094 34.9201 
495 1 32.5631 70.7436 36.9484 
496 1 31.321 68.5922 36.9484 
497 1 33.8052 67.158 34.9201 
498 1 35.0473 69.3094 34.9201 
499 1 35.0473 70.7436 36.9484 
500 1 33.8052 68.5922 36.9484 
501 1 36.2894 67.158 34.9201 
502 1 37.5316 69.3094 34.9201 
503 1 37.5316 70.7436 36.9484 
504 1 36.2894 68.5922 36.9484 
505 1 38.7737 67.158 34.9201 
506 1 40.0158 69.3094 34.9201 
507 1 40.0158 70.7436 36.9484 
508 1 38.7737 68.5922 36.9484 
509 1 41.2579 67.158 34.9201 
510 1 42.5 69.3094 34.9201 
511 1 42.5 70.7436 36.9484 
512 1 41.2579 68.5922 36.9484 
513 1 43.7421 67.158 34.9201 
514 1 44.9842 69.3094 34.9201 
515 1 44.9842 70.7436 36.9484 
516 1 43.7421 68.5922 36.9484 
517 1 46.2263 67.158 34.9201 
518 1 47.4684 69.3094 34.9201 
519 1 47.4684 70.7436 36.9484 
520 1 46.2263 68.5922 36.9484 
521 1 48.7106 67.158 34.9201 
522 1 49.9527 69.3094 34.9201 
523 1 49.9527 70.7436 36.9484 
524 1 48.7106 68.5922 36.9484 
525 1 51.1948 67.158 34.9201 
526 1 52.4369 69.3094 34.9201 
527 1 52.4369 70.7436 36.9484 
528 1 51.1948 68.5922 36.9484 
529 1 53.679 67.158 34.9201 
530 1 54.9211 69.3094 34.9201 
531 1 54.9211 70.7436 36.9484 
532 1 53.679 68.5922 36.9484 
533 1 56.1632 67.158 34.9201 
534 1 57.4053 69.3094 34.9201 
535 1 57.4053 70.7436 36.9484 
536 1 56.1632 68.5922 36.9484 
537 1 58.6475 67.158 34.9201 
538 1 59.8896 69.3094 34.9201 
539 1 59.8896 70.7436 36.9484 
540 1 58.6475 68.5922 36.9484 
541 1 61.1317 67.158 34.9201 
542 1 62.3738 69.3094 34.9201 
543 1 62.3738 70.7436 36.9484 
544 1 61.1317 68.5922 36.9484 
545 1 21.3841 71.4608 34.9201 
546 1 22.6262 73.6122 34.9201 
547 1 22.6262 75.0464 36.9484 
548 1 21.3841 72.895 36.9484 
549 1 23.8683 71.4608 34.9201 
550 1 25.1104 73.6122 34.9201 
551 1 25.1104 75.0464 36.9484 
552 1 23.8683 72.895 36.9484 
553 1 26.3525 71.4608 34.9201 
554 1 27.5947 73.6122 34.9201 
555 1 27.5947 75.0464 36.9484 
556 1 26.3525 72.895 36.9484 
557 1 28.8368 71.4608 34.9201 
558 1 30.0789 73.6122 34.9201 
559 1 30.0789 75.0464 36.9484 
560 1 28.8368 72.895 36.9484 
561 1 31.321 71.4608 34.9201 
562 1 32.5631 73.6122 34.9201 
563 1 32.5631 75.0464 36.9484 
564 1 31.321 72.895 36.9484 
565 1 33.8052 71.4608 34.9201 
566 1 35.0473 73.6122 34.9201 
567 1 35.0473 75.0464 36.9484 
568 1 33.8052 72.895 36.9484 
569 1 36.2894 71.4608 34.9201 
570 1 37.5316 73.6122 34.9201 
571 1 37.5316 75.0464 36.9484 
572 1 36.2894 72.895 36.9484 
573 1 38.7737 71.4608 34.9201 
574 1 40.0158 73.6122 34.9201 
575 1 40.0158 75.0464 36.9484 
576 1 38.7737 72.895 36.9484 
577 1 41.2579 71.4608 34.9201 
578 1 42.5 73.6122 34.9201 
579 1 42.5 75.0464 36.9484 
580 1 41.2579 72.895 36.9484 
581 1 43.7421 71.4608 34.9201 
582 1 44.9842 73.6122 34.9201 
583 1 44.9842 75.0464 36.9484 
584 1 43.7421 72.895 36.9484 
585 1 46.2263 71.4608 34.9201 
586 1 47.4684 73.6122 34.9201 
587 1 47.4684 75.0464 36.9484 
588 1 46.2263 72.895 36.9484 
589 1 48.7106 71.4608 34.9201 
590 1 49.9527 73.6122 34.9201 
591 1 49.9527 75.0464 36.9484 
592 1 48.7106 72.895 36.9484 
593 1 51.1948 71.4608 34.9201 
594 1 52.4369 73.6122 34.9201 
595 1 52.4369 75.0464 36.9484 
596 1 51.1948 72.895 36.9484 
597 1 53.679 71.4608 34.9201 
598 1 54.9211 73.6122 34.9201 
599 1 54.9211 75.0464 36.9484 
600 1 53.679 72.895 36.9484 
601 1 56.1632 71.4608 34.9201 
602 1 57.4053 73.6122 34.9201 
603 1 57.4053 75.0464 36.9484 
604 1 56.1632 72.895 36.9484 
605 1 58.6475 71.4608 34.9201 
606 1 59.8896 73.6122 34.9201 
607 1 59.8896 75.0464 36.9484 
608 1 58.6475 72.895 36.9484 
609 1 61.1317 71.4608 34.9201 
610 1 62.3738 73.6122 34.9201 
611 1 62.3738 75.0464 36.9484 
612 1 61.1317 72.895 36.9484 
613 1 21.3841 75.7636 34.9201 
614 1 22.6262 77.915 34.9201 
615 1 22.6262 79.3492 36.9484 
616 1 21.3841 77.1978 36.9484 
617 1 23.8683 75.7636 34.9201 
618 1 25.1104 77.915 34.9201 
619 1 25.1104 79.3492 36.9484 
620 1 23.8683 77.1978 36.9484 
621 1 26.3525 75.7636 34.9201 
622 1 27.5947 77.915 34.9201 
623 1 27.5947 79.3492 36.9484 
624 1 26.3525 77.1978 36.9484 
625 1 28.8368 75.7636 34.9201 
626 1 30.0789 77.915 34.9201 
627 1 30.0789 79.3492 36.9484 
628 1 28.8368 77.1978 36.9484 
629 1 31.321 75.7636 34.9201 
630 1 32.5631 77.915 34.9201 
631 1 32.5631 79.3492 36.9484 
632 1 31.321 77.1978 36.9484 
633 1 33.8052 75.7636 34.9201 
634 1 35.0473 77.915 34.9201 
635 1 35.0473 79.3492 36.9484 
636 1 33.8052 77.1978 36.9484 
637 1 36.2894 75.7636 34.9201 
638 1 37.5316 77.915 34.9201 
639 1 37.5316 79.3492 36.9484 
640 1 36.2894 77.1978 36.9484 
641 1 38.7737 75.7636 34.9201 
642 1 40.0158 77.915 34.9201 
643 1 40.0158 79.3492 36.9484 
644 1 38.7737 77.1978 36.9484 
645 1 41.2579 75.7636 34.9201 
646 1 42.5 77.915 34.9201 
647 1 42.5 79.3492 36.9484 
648 1 41.2579 77.1978 36.9484 
649 1 43.7421 75.7636 34.9201 
650 1 44.9842 77.915 34.9201 
651 1 44.9842 79.3492 36.9484 
652 1 43.7421 77.1978 36.9484 
653 1 46.2263 75.7636 34.9201 
654 1 47.4684 77.915 34.9201 
655 1 47.4684 79.3492 36.9484 
656 1 46.2263 77.1978 36.9484 
657 1 48.7106 75.7636 34.9201 
658 1 49.9527 77.915 34.9201 
659 1 49.9527 79.3492 36.9484 
660 1 48.7106 77.1978 36.9484 
661 1 51.1948 75.7636 34.9201 
662 1 52.4369 77.915 34.9201 
663 1 52.4369 79.3492 36.9484 
664 1 51.1948 77.1978 36.9484 
665 1 53.679 75.7636 34.9201 
666 1 54.9211 77.915 34.9201 
667 1 54.9211 79.3492 36.9484 
668 1 53.679 77.1978 36.9484 
669 1 56.1632 75.7636 34.9201 
670 1 57.4053 77.915 34.9201 
671 1 57.4053 79.3492 36.9484 
672 1 56.1632 77.1978 36.9484 
673 1 58.6475 75.7636 34.9201 
674 1 59.8896 77.915 34.9201 
675 1 59.8896 79.3492 36.9484 
676 1 58.6475 77.1978 36.9484 
677 1 61.1317 75.7636 34.9201 
678 1 62.3738 77.915 34.9201 
679 1 62.3738 79.3492 36.9484 
680 1 61.1317 77.1978 36.9484 
681 1 21.3841 80.0664 34.9201 
682 1 22.6262 82.2178 34.9201 
683 1 22.6262 83.652 36.9484 
684 1 21.3841 81.5006 36.9484 
685 1 23.8683 80.0664 34.9201 
686 1 25.1104 82.2178 34.9201 
687 1 25.1104 83.652 36.9484 
688 1 23.8683 81.5006 36.9484 
689 1 26.3525 80.0664 34.9201 
690 1 27.5947 82.2178 34.9201 
691 1 27.5947 83.652 36.9484 
692 1 26.3525 81.5006 36.9484 
693 1 28.8368 80.0664 34.9201 
694 1 30.0789 82.2178 34.9201 
695 1 30.0789 83.652 36.9484 
696 1 28.8368 81.5006 36.9484 
697 1 31.321 80.0664 34.9201 
698 1 32.5631 82.2178 34.9201 
699 1 32.5631 83.652 36.9484 
700 1 31.321 81.5006 36.9484 
701 1 33.8052 80.0664 34.9201 
702 1 35.0473 82.2178 34.9201 
703 1 35.0473 83.652 36.9484 
704 1 33.8052 81.5006 36.9484 
705 1 36.2894 80.0664 34.9201 
706 1 37.5316 82.2178 34.9201 
707 1 37.5316 83.652 36.9484 
708 1 36.2894 81.5006 36.9484 
709 1 38.7737 80.0664 34.9201 
710 1 40.0158 82.2178 34.9201 
711 1 40.0158 83.652 36.9484 
712 1 38.7737 81.5006 36.9484 
713 1 41.2579 80.0664 34.9201 
714 1 42.5 82.2178 34.9201 
715 1 42.5 83.652 36.9484 
716 1 41.2579 81.5006 36.9484 
717 1 43.7421 80.0664 34.9201 
718 1 44.9842 82.2178 34.9201 
719 1 44.9842 83.652 36.9484 
720 1 43.7421 81.5006 36.9484 
721 1 46.2263 80.0664 34.9201 
722 1 47.4684 82.2178 34.9201 
723 1 47.4684 83.652 36.9484 
724 1 46.2263 81.5006 36.9484 
725 1 48.7106 80.0664 34.9201 
726 1 49.9527 82.2178 34.9201 
727 1 49.9527 83.652 36.9484 
728 1 48.7106 81.5006 36.9484 
729 1 51.1948 80.0664 34.9201 
730 1 52.4369 82.2178 34.9201 
731 1 52.4369 83.652 36.9484 
732 1 51.1948 81.5006 36.9484 
733 1 53.679 80.0664 34.9201 
734 1 54.9211 82.2178 34.9201 
735 1 54.9211 83.652 36.9484 
736 1 53.679 81.5006 36.9484 
737 1 56.1632 80.0664 34.9201 
738 1 57.4053 82.2178 34.9201 
739 1 57.4053 83.652 36.9484 
740 1 56.1632 81.5006 36.9484 
741 1 58.6475 80.0664 34.9201 
742 1 59.8896 82.2178 34.9201 
743 1 59.8896 83.652 36.9484 
744 1 58.6475 81.5006 36.9484 
745 1 61.1317 80.0664 34.9201 
746 1 62.3738 82.2178 34.9201 
747 1 62.3738 83.652 36.9484 
748 1 61.1317 81.5006 36.9484 
749 1 21.3841 84.3692 34.9201 
750 1 22.6262 86.5206 34.9201 
751 1 22.6262 87.9548 36.9484 
752 1 21.3841 85.8034 36.9484 
753 1 23.8683 84.3692 34.9201 
754 1 25.1104 86.5206 34.9201 
755 1 25.1104 87.9548 36.9484 
756 1 23.8683 85.8034 36.9484 
757 1 26.3525 84.3692 34.9201 
758 1 27.5947 86.5206 34.9201 
759 1 27.5947 87.9548 36.9484 
760 1 26.3525 85.8034 36.9484 
761 1 28.8368 84.3692 34.9201 
762 1 30.0789 86.5206 34.9201 
763 1 30.0789 87.9548 36.9484 
764 1 28.8368 85.8034 36.9484 
765 1 31.321 84.3692 34.9201 
766 1 32.5631 86.5206 34.9201 
767 1 32.5631 87.9548 36.9484 
768 1 31.321 85.8034 36.9484 
769 1 33.8052 84.3692 34.9201 
770 1 35.0473 86.5206 34.9201 
771 1 35.0473 87.9548 36.9484 
772 1 33.8052 85.8034 36.9484 
773 1 36.2894 84.3692 34.9201 
774 1 37.5316 86.5206 34.9201 
775 1 37.5316 87.9548 36.9484 
776 1 36.2894 85.8034 36.9484 
777 1 38.7737 84.3692 34.9201 
778 1 40.0158 86.5206 34.9201 
779 1 40.0158 87.9548 36.9484 
780 1 38.7737 85.8034 36.9484 
781 1 41.2579 84.3692 34.9201 
782 1 42.5 86.5206 34.9201 
783 1 42.5 87.9548 36.9484 
784 1 41.2579 85.8034 36.9484 
785 1 43.7421 84.3692 34.9201 
786 1 44.9842 86.5206 34.9201 
787 1 44.9842 87.9548 36.9484 
788 1 43.7421 85.8034 36.9484 
789 1 46.2263 84.3692 34.9201 
790 1 47.4684 86.5206 34.9201 
791 1 47.4684 87.9548 36.9484 
792 1 46.2263 85.8034 36.9484 
793 1 48.7106 84.3692 34.9201 
794 1 49.9527 86.5206 34.9201 
795 1 49.9527 87.9548 36.9484 
796 1 48.7106 85.8034 36.9484 
797 1 51.1948 84.3692 34.9201 
798 1 52.4369 86.5206 34.9201 
799 1 52.4369 87.9548 36.9484 
800 1 51.1948 85.8034 36.9484 
801 1 53.679 84.3692 34.9201 
802 1 54.9211 86.5206 34.9201 
803 1 54.9211 87.9548 36.9484 
804 1 53.679 85.8034 36.9484 
805 1 56.1632 84.3692 34.9201 
806 1 57.4053 86.5206 34.9201 
807 1 57.4053 87.9548 36.9484 
808 1 56.1632 85.8034 36.9484 
809 1 58.6475 84.3692 34.9201 
810 1 59.8896 86.5206 34.9201 
811 1 59.8896 87.9548 36.9484 
812 1 58.6475 85.8034 36.9484 
813 1 61.1317 84.3692 34.9201 
814 1 62.3738 86.5206 34.9201 
815 1 62.3738 87.9548 36.9484 
816 1 61.1317 85.8034 36.9484 
817 1 21.3841 88.672 34.9201 
818 1 22.6262 90.8234 34.9201 
819 1 22.6262 92.2576 36.9484 
820 1 21.3841 90.1062 36.9484 
821 1 23.8683 88.672 34.9201 
822 1 25.1104 90.8234 34.9201 
823 1 25.1104 92.2576 36.9484 
824 1 23.8683 90.1062 36.9484 
825 1 26.3525 88.672 34.9201 
826 1 27.5947 90.8234 34.9201 
827 1 27.5947 92.2576 36.9484 
828 1 26.3525 90.1062 36.9484 
829 1 28.8368 88.672 34.9201 
830 1 30.0789 90.8234 34.9201 
831 1 30.0789 92.2576 36.9484 
832 1 28.8368 90.1062 36.9484 
833 1 31.321 88.672 34.9201 
834 1 32.5631 90.8234 34.9201 
835 1 32.5631 92.2576 36.9484 
836 1 31.321 90.1062 36.9484 
837 1 33.8052 88.672 34.9201 
838 1 35.0473 90.8234 34.9201 
839 1 35.0473 92.2576 36.9484 
840 1 33.8052 90.1062 36.9484 
841 1 36.2894 88.672 34.9201 
842 1 37.5316 90.8234 34.9201 
843 1 37.5316 92.2576 36.9484 
844 1 36.2894 90.1062 36.9484 
845 1 38.7737 88.672 34.9201 
846 1 40.0158 90.8234 34.9201 
847 1 40.0158 92.2576 36.9484 
848 1 38.7737 90.1062 36.9484 
849 1 41.2579 88.672 34.9201 
850 1 42.5 90.8234 34.9201 
851 1 42.5 92.2576 36.9484 
852 1 41.2579 90.1062 36.9484 
853 1 43.7421 88.672 34.9201 
854 1 44.9842 90.8234 34.9201 
855 1 44.9842 92.2576 36.9484 
856 1 43.7421 90.1062 36.9484 
857 1 46.2263 88.672 34.9201 
858 1 47.4684 90.8234 34.9201 
859 1 47.4684 92.2576 36.9484 
860 1 46.2263 90.1062 36.9484 
861 1 48.7106 88.672 34.9201 
862 1 49.9527 90.8234 34.9201 
863 1 49.9527 92.2576 36.9484 
864 1 48.7106 90.1062 36.9484 
865 1 51.1948 88.672 34.9201 
866 1 52.4369 90.8234 34.9201 
867 1 52.4369 92.2576 36.9484 
868 1 51.1948 90.1062 36.9484 
869 1 53.679 88.672 34.9201 
870 1 54.9211 90.8234 34.9201 
871 1 54.9211 92.2576 36.9484 
872 1 53.679 90.1062 36.9484 
873 1 56.1632 88.672 34.9201 
874 1 57.4053 90.8234 34.9201 
875 1 57.4053 92.2576 36.9484 
876 1 56.1632 90.1062 36.9484 
877 1 58.6475 88.672 34.9201 
878 1 59.8896 90.8234 34.9201 
879 1 59.8896 92.2576 36.9484 
880 1 58.6475 90.1062 36.9484 
881 1 61.1317 88.672 34.9201 
882 1 62.3738 90.8234 34.9201 
883 1 62.3738 92.2576 36.9484 
884 1 61.1317 90.1062 36.9484 
885 1 21.3841 92.9748 34.9201 
886 1 22.6262 95.1262 34.9201 
887 1 22.6262 96.5604 36.9484 
888 1 21.3841 94.409 36.9484 
889 1 23.8683 92.9748 34.9201 
890 1 25.1104 95.1262 34.9201 
891 1 25.1104 96.5604 36.9484 
892 1 23.8683 94.409 36.9484 
893 1 26.3525 92.9748 34.9201 
894 1 27.5947 95.1262 34.9201 
895 1 27.5947 96.5604 36.9484 
896 1 26.3525 94.409 36.9484 
897 1 28.8368 92.9748 34.9201 
898 1 30.0789 95.1262 34.9201 
899 1 30.0789 96.5604 36.9484 
900 1 28.8368 94.409 36.9484 
901 1 31.321 92.9748 34.9201 
902 1 32.5631 95.1262 34.9201 
903 1 32.5631 96.5604 36.9484 
904 1 31.321 94.409 36.9484 
905 1 33.8052 92.9748 34.9201 
906 1 35.0473 95.1262 34.9201 
907 1 35.0473 96.5604 36.9484 
908 1 33.8052 94.409 36.9484 
909 1 36.2894 92.9748 34.9201 
910 1 37.5316 95.1262 34.9201 
911 1 37.5316 96.5604 36.9484 
912 1 36.2894 94.409 36.9484 
913 1 38.7737 92.9748 34.9201 
914 1 40.0158 95.1262 34.9201 
915 1 40.0158 96.5604 36.9484 
916 1 38.7737 94.409 36.9484 
917 1 41.2579 92.9748 34.9201 
918 1 42.5 95.1262 34.9201 
919 1 42.5 96.5604 36.9484 
920 1 41.2579 94.409 36.9484 
921 1 43.7421 92.9748 34.9201 
922 1 44.9842 95.1262 34.9201 
923 1 44.9842 96.5604 36.9484 
924 1 43.7421 94.409 36.9484 
925 1 46.2263 92.9748 34.9201 
926 1 47.4684 95.1262 34.9201 
927 1 47.4684 96.5604 36.9484 
928 1 46.2263 94.409 36.9484 
929 1 48.7106 92.9748 34.9201 
930 1 49.9527 95.1262 34.9201 
931 1 49.9527 96.5604 36.9484 
932 1 48.7106 94.409 36.9484 
933 1 51.1948 92.9748 34.9201 
934 1 52.4369 95.1262 34.9201 
935 1 52.4369 96.5604 36.9484 
936 1 51.1948 94.409 36.9484 
937 1 53.679 92.9748 34.9201 
938 1 54.9211 95.1262 34.9201 
939 1 54.9211 96.5604 36.9484 
940 1 53.679 94.409 36.9484 
941 1 56.1632 92.9748 34.9201 
942 1 57.4053 95.1262 34.9201 
943 1 57.4053 96.5604 36.9484 
944 1 56.1632 94.409 36.9484 
945 1 58.6475 92.9748 34.9201 
946 1 59.8896 95.1262 34.9201 
947 1 59.8896 96.5604 36.9484 
948 1 58.6475 94.409 36.9484 
949 1 61.1317 92.9748 34.9201 
950 1 62.3738 95.1262 34.9201 
951 1 62.3738 96.5604 36.9484 
952 1 61.1317 94.409 36.9484 
953 1 21.3841 97.2776 34.9201 
954 1 22.6262 99.429 34.9201 
955 1 22.6262 100.863 36.9484 
956 1 21.3841 98.7118 36.9484 
957 1 23.8683 97.2776 34.9201 
958 1 25.1104 99.429 34.9201 
959 1 25.1104 100.863 36.9484 
960 1 23.8683 98.7118 36.9484 
961 1 26.3525 97.2776 34.9201 
962 1 27.5947 99.429 34.9201 
963 1 27.5947 100.863 36.9484 
964 1 26.3525 98.7118 36.9484 
965 1 28.8368 97.2776 34.9201 
966 1 30.0789 99.429 34.9201 
967 1 30.0789 100.863 36.9484 
968 1 28.8368 98.7118 36.9484 
969 1 31.321 97.2776 34.9201 
970 1 32.5631 99.429 34.9201 
971 1 32.5631 100.863 36.9484 
972 1 31.321 98.7118 36.9484 
973 1 33.8052 97.2776 34.9201 
974 1 35.0473 99.429 34.9201 