ITEM: TIMESTEP
76
ITEM: NUMBER OF ATOMS
9826
ITEM: BOX BOUNDS pp pp pp
1.5383464224879514e+01 6.9616535775120113e+01
1.5383464224879514e+01 6.9616535775120113e+01
1.5383464224879514e+01 6.9616535775120113e+01
ITEM: ATOMS id type xu yu zu 
1 2 15.3835 15.3835 15.3835 
2 2 16.9786 16.9786 16.9786 
3 2 18.5736 15.3835 15.3835 
4 2 20.1687 16.9786 16.9786 
5 2 21.7638 15.3835 15.3835 
6 2 23.3589 16.9786 16.9786 
7 2 24.954 15.3835 15.3835 
8 2 26.5491 16.9786 16.9786 
9 2 28.1442 15.3835 15.3835 
10 2 29.7393 16.9786 16.9786 
11 2 31.3344 15.3835 15.3835 
12 2 32.9295 16.9786 16.9786 
13 2 34.5245 15.3835 15.3835 
14 2 36.1196 16.9786 16.9786 
15 2 37.7147 15.3835 15.3835 
16 2 39.3098 16.9786 16.9786 
17 2 40.9049 15.3835 15.3835 
18 2 42.5 16.9786 16.9786 
19 2 44.0951 15.3835 15.3835 
20 2 45.6902 16.9786 16.9786 
21 2 47.2853 15.3835 15.3835 
22 2 48.8804 16.9786 16.9786 
23 2 50.4755 15.3835 15.3835 
24 2 52.0705 16.9786 16.9786 
25 2 53.6656 15.3835 15.3835 
26 2 55.2607 16.9786 16.9786 
27 2 56.8558 15.3835 15.3835 
28 2 58.4509 16.9786 16.9786 
29 2 60.046 15.3835 15.3835 
30 2 61.6411 16.9786 16.9786 
31 2 63.2362 15.3835 15.3835 
32 2 64.8313 16.9786 16.9786 
33 2 66.4264 15.3835 15.3835 
34 2 68.0214 16.9786 16.9786 
35 2 15.3835 18.5736 15.3835 
36 2 16.9786 20.1687 16.9786 
37 2 18.5736 18.5736 15.3835 
38 2 20.1687 20.1687 16.9786 
39 2 21.7638 18.5736 15.3835 
40 2 23.3589 20.1687 16.9786 
41 2 24.954 18.5736 15.3835 
42 2 26.5491 20.1687 16.9786 
43 2 28.1442 18.5736 15.3835 
44 2 29.7393 20.1687 16.9786 
45 2 31.3344 18.5736 15.3835 
46 2 32.9295 20.1687 16.9786 
47 2 34.5245 18.5736 15.3835 
48 2 36.1196 20.1687 16.9786 
49 2 37.7147 18.5736 15.3835 
50 2 39.3098 20.1687 16.9786 
51 2 40.9049 18.5736 15.3835 
52 2 42.5 20.1687 16.9786 
53 2 44.0951 18.5736 15.3835 
54 2 45.6902 20.1687 16.9786 
55 2 47.2853 18.5736 15.3835 
56 2 48.8804 20.1687 16.9786 
57 2 50.4755 18.5736 15.3835 
58 2 52.0705 20.1687 16.9786 
59 2 53.6656 18.5736 15.3835 
60 2 55.2607 20.1687 16.9786 
61 2 56.8558 18.5736 15.3835 
62 2 58.4509 20.1687 16.9786 
63 2 60.046 18.5736 15.3835 
64 2 61.6411 20.1687 16.9786 
65 2 63.2362 18.5736 15.3835 
66 2 64.8313 20.1687 16.9786 
67 2 66.4264 18.5736 15.3835 
68 2 68.0214 20.1687 16.9786 
69 2 15.3835 21.7638 15.3835 
70 2 16.9786 23.3589 16.9786 
71 2 18.5736 21.7638 15.3835 
72 2 20.1687 23.3589 16.9786 
73 2 21.7638 21.7638 15.3835 
74 2 23.3589 23.3589 16.9786 
75 2 24.954 21.7638 15.3835 
76 2 26.5491 23.3589 16.9786 
77 2 28.1442 21.7638 15.3835 
78 2 29.7393 23.3589 16.9786 
79 2 31.3344 21.7638 15.3835 
80 2 32.9295 23.3589 16.9786 
81 2 34.5245 21.7638 15.3835 
82 2 36.1196 23.3589 16.9786 
83 2 37.7147 21.7638 15.3835 
84 2 39.3098 23.3589 16.9786 
85 2 40.9049 21.7638 15.3835 
86 2 42.5 23.3589 16.9786 
87 2 44.0951 21.7638 15.3835 
88 2 45.6902 23.3589 16.9786 
89 2 47.2853 21.7638 15.3835 
90 2 48.8804 23.3589 16.9786 
91 2 50.4755 21.7638 15.3835 
92 2 52.0705 23.3589 16.9786 
93 2 53.6656 21.7638 15.3835 
94 2 55.2607 23.3589 16.9786 
95 2 56.8558 21.7638 15.3835 
96 2 58.4509 23.3589 16.9786 
97 2 60.046 21.7638 15.3835 
98 2 61.6411 23.3589 16.9786 
99 2 63.2362 21.7638 15.3835 
100 2 64.8313 23.3589 16.9786 
101 2 66.4264 21.7638 15.3835 
102 2 68.0214 23.3589 16.9786 
103 2 15.3835 24.954 15.3835 
104 2 16.9786 26.5491 16.9786 
105 2 18.5736 24.954 15.3835 
106 2 20.1687 26.5491 16.9786 
107 2 21.7638 24.954 15.3835 
108 2 23.3589 26.5491 16.9786 
109 2 24.954 24.954 15.3835 
110 2 26.5491 26.5491 16.9786 
111 2 28.1442 24.954 15.3835 
112 2 29.7393 26.5491 16.9786 
113 2 31.3344 24.954 15.3835 
114 2 32.9295 26.5491 16.9786 
115 2 34.5245 24.954 15.3835 
116 2 36.1196 26.5491 16.9786 
117 2 37.7147 24.954 15.3835 
118 2 39.3098 26.5491 16.9786 
119 2 40.9049 24.954 15.3835 
120 2 42.5 26.5491 16.9786 
121 2 44.0951 24.954 15.3835 
122 2 45.6902 26.5491 16.9786 
123 2 47.2853 24.954 15.3835 
124 2 48.8804 26.5491 16.9786 
125 2 50.4755 24.954 15.3835 
126 2 52.0705 26.5491 16.9786 
127 2 53.6656 24.954 15.3835 
128 2 55.2607 26.5491 16.9786 
129 2 56.8558 24.954 15.3835 
130 2 58.4509 26.5491 16.9786 
131 2 60.046 24.954 15.3835 
132 2 61.6411 26.5491 16.9786 
133 2 63.2362 24.954 15.3835 
134 2 64.8313 26.5491 16.9786 
135 2 66.4264 24.954 15.3835 
136 2 68.0214 26.5491 16.9786 
137 2 15.3835 28.1442 15.3835 
138 2 16.9786 29.7393 16.9786 
139 2 18.5736 28.1442 15.3835 
140 2 20.1687 29.7393 16.9786 
141 2 21.7638 28.1442 15.3835 
142 2 23.3589 29.7393 16.9786 
143 2 24.954 28.1442 15.3835 
144 2 26.5491 29.7393 16.9786 
145 2 28.1442 28.1442 15.3835 
146 2 29.7393 29.7393 16.9786 
147 2 31.3344 28.1442 15.3835 
148 2 32.9295 29.7393 16.9786 
149 2 34.5245 28.1442 15.3835 
150 2 36.1196 29.7393 16.9786 
151 2 37.7147 28.1442 15.3835 
152 2 39.3098 29.7393 16.9786 
153 2 40.9049 28.1442 15.3835 
154 2 42.5 29.7393 16.9786 
155 2 44.0951 28.1442 15.3835 
156 2 45.6902 29.7393 16.9786 
157 2 47.2853 28.1442 15.3835 
158 2 48.8804 29.7393 16.9786 
159 2 50.4755 28.1442 15.3835 
160 2 52.0705 29.7393 16.9786 
161 2 53.6656 28.1442 15.3835 
162 2 55.2607 29.7393 16.9786 
163 2 56.8558 28.1442 15.3835 
164 2 58.4509 29.7393 16.9786 
165 2 60.046 28.1442 15.3835 
166 2 61.6411 29.7393 16.9786 
167 2 63.2362 28.1442 15.3835 
168 2 64.8313 29.7393 16.9786 
169 2 66.4264 28.1442 15.3835 
170 2 68.0214 29.7393 16.9786 
171 2 15.3835 31.3344 15.3835 
172 2 16.9786 32.9295 16.9786 
173 2 18.5736 31.3344 15.3835 
174 2 20.1687 32.9295 16.9786 
175 2 21.7638 31.3344 15.3835 
176 2 23.3589 32.9295 16.9786 
177 2 24.954 31.3344 15.3835 
178 2 26.5491 32.9295 16.9786 
179 2 28.1442 31.3344 15.3835 
180 2 29.7393 32.9295 16.9786 
181 2 31.3344 31.3344 15.3835 
182 2 32.9295 32.9295 16.9786 
183 2 34.5245 31.3344 15.3835 
184 2 36.1196 32.9295 16.9786 
185 2 37.7147 31.3344 15.3835 
186 2 39.3098 32.9295 16.9786 
187 2 40.9049 31.3344 15.3835 
188 2 42.5 32.9295 16.9786 
189 2 44.0951 31.3344 15.3835 
190 2 45.6902 32.9295 16.9786 
191 2 47.2853 31.3344 15.3835 
192 2 48.8804 32.9295 16.9786 
193 2 50.4755 31.3344 15.3835 
194 2 52.0705 32.9295 16.9786 
195 2 53.6656 31.3344 15.3835 
196 2 55.2607 32.9295 16.9786 
197 2 56.8558 31.3344 15.3835 
198 2 58.4509 32.9295 16.9786 
199 2 60.046 31.3344 15.3835 
200 2 61.6411 32.9295 16.9786 
201 2 63.2362 31.3344 15.3835 
202 2 64.8313 32.9295 16.9786 
203 2 66.4264 31.3344 15.3835 
204 2 68.0214 32.9295 16.9786 
205 2 15.3835 34.5245 15.3835 
206 2 16.9786 36.1196 16.9786 
207 2 18.5736 34.5245 15.3835 
208 2 20.1687 36.1196 16.9786 
209 2 21.7638 34.5245 15.3835 
210 2 23.3589 36.1196 16.9786 
211 2 24.954 34.5245 15.3835 
212 2 26.5491 36.1196 16.9786 
213 2 28.1442 34.5245 15.3835 
214 2 29.7393 36.1196 16.9786 
215 2 31.3344 34.5245 15.3835 
216 2 32.9295 36.1196 16.9786 
217 2 34.5245 34.5245 15.3835 
218 2 36.1196 36.1196 16.9786 
219 2 37.7147 34.5245 15.3835 
220 2 39.3098 36.1196 16.9786 
221 2 40.9049 34.5245 15.3835 
222 2 42.5 36.1196 16.9786 
223 2 44.0951 34.5245 15.3835 
224 2 45.6902 36.1196 16.9786 
225 2 47.2853 34.5245 15.3835 
226 2 48.8804 36.1196 16.9786 
227 2 50.4755 34.5245 15.3835 
228 2 52.0705 36.1196 16.9786 
229 2 53.6656 34.5245 15.3835 
230 2 55.2607 36.1196 16.9786 
231 2 56.8558 34.5245 15.3835 
232 2 58.4509 36.1196 16.9786 
233 2 60.046 34.5245 15.3835 
234 2 61.6411 36.1196 16.9786 
235 2 63.2362 34.5245 15.3835 
236 2 64.8313 36.1196 16.9786 
237 2 66.4264 34.5245 15.3835 
238 2 68.0214 36.1196 16.9786 
239 2 15.3835 37.7147 15.3835 
240 2 16.9786 39.3098 16.9786 
241 2 18.5736 37.7147 15.3835 
242 2 20.1687 39.3098 16.9786 
243 2 21.7638 37.7147 15.3835 
244 2 23.3589 39.3098 16.9786 
245 2 24.954 37.7147 15.3835 
246 2 26.5491 39.3098 16.9786 
247 2 28.1442 37.7147 15.3835 
248 2 29.7393 39.3098 16.9786 
249 2 31.3344 37.7147 15.3835 
250 2 32.9295 39.3098 16.9786 
251 2 34.5245 37.7147 15.3835 
252 2 36.1196 39.3098 16.9786 
253 2 37.7147 37.7147 15.3835 
254 2 39.3098 39.3098 16.9786 
255 2 40.9049 37.7147 15.3835 
256 2 42.5 39.3098 16.9786 
257 2 44.0951 37.7147 15.3835 
258 2 45.6902 39.3098 16.9786 
259 2 47.2853 37.7147 15.3835 
260 2 48.8804 39.3098 16.9786 
261 2 50.4755 37.7147 15.3835 
262 2 52.0705 39.3098 16.9786 
263 2 53.6656 37.7147 15.3835 
264 2 55.2607 39.3098 16.9786 
265 2 56.8558 37.7147 15.3835 
266 2 58.4509 39.3098 16.9786 
267 2 60.046 37.7147 15.3835 
268 2 61.6411 39.3098 16.9786 
269 2 63.2362 37.7147 15.3835 
270 2 64.8313 39.3098 16.9786 
271 2 66.4264 37.7147 15.3835 
272 2 68.0214 39.3098 16.9786 
273 2 15.3835 40.9049 15.3835 
274 2 16.9786 42.5 16.9786 
275 2 18.5736 40.9049 15.3835 
276 2 20.1687 42.5 16.9786 
277 2 21.7638 40.9049 15.3835 
278 2 23.3589 42.5 16.9786 
279 2 24.954 40.9049 15.3835 
280 2 26.5491 42.5 16.9786 
281 2 28.1442 40.9049 15.3835 
282 2 29.7393 42.5 16.9786 
283 2 31.3344 40.9049 15.3835 
284 2 32.9295 42.5 16.9786 
285 2 34.5245 40.9049 15.3835 
286 2 36.1196 42.5 16.9786 
287 2 37.7147 40.9049 15.3835 
288 2 39.3098 42.5 16.9786 
289 2 40.9049 40.9049 15.3835 
290 2 42.5 42.5 16.9786 
291 2 44.0951 40.9049 15.3835 
292 2 45.6902 42.5 16.9786 
293 2 47.2853 40.9049 15.3835 
294 2 48.8804 42.5 16.9786 
295 2 50.4755 40.9049 15.3835 
296 2 52.0705 42.5 16.9786 
297 2 53.6656 40.9049 15.3835 
298 2 55.2607 42.5 16.9786 
299 2 56.8558 40.9049 15.3835 
300 2 58.4509 42.5 16.9786 
301 2 60.046 40.9049 15.3835 
302 2 61.6411 42.5 16.9786 
303 2 63.2362 40.9049 15.3835 
304 2 64.8313 42.5 16.9786 
305 2 66.4264 40.9049 15.3835 
306 2 68.0214 42.5 16.9786 
307 2 15.3835 44.0951 15.3835 
308 2 16.9786 45.6902 16.9786 
309 2 18.5736 44.0951 15.3835 
310 2 20.1687 45.6902 16.9786 
311 2 21.7638 44.0951 15.3835 
312 2 23.3589 45.6902 16.9786 
313 2 24.954 44.0951 15.3835 
314 2 26.5491 45.6902 16.9786 
315 2 28.1442 44.0951 15.3835 
316 2 29.7393 45.6902 16.9786 
317 2 31.3344 44.0951 15.3835 
318 2 32.9295 45.6902 16.9786 
319 2 34.5245 44.0951 15.3835 
320 2 36.1196 45.6902 16.9786 
321 2 37.7147 44.0951 15.3835 
322 2 39.3098 45.6902 16.9786 
323 2 40.9049 44.0951 15.3835 
324 2 42.5 45.6902 16.9786 
325 2 44.0951 44.0951 15.3835 
326 2 45.6902 45.6902 16.9786 
327 2 47.2853 44.0951 15.3835 
328 2 48.8804 45.6902 16.9786 
329 2 50.4755 44.0951 15.3835 
330 2 52.0705 45.6902 16.9786 
331 2 53.6656 44.0951 15.3835 
332 2 55.2607 45.6902 16.9786 
333 2 56.8558 44.0951 15.3835 
334 2 58.4509 45.6902 16.9786 
335 2 60.046 44.0951 15.3835 
336 2 61.6411 45.6902 16.9786 
337 2 63.2362 44.0951 15.3835 
338 2 64.8313 45.6902 16.9786 
339 2 66.4264 44.0951 15.3835 
340 2 68.0214 45.6902 16.9786 
341 2 15.3835 47.2853 15.3835 
342 2 16.9786 48.8804 16.9786 
343 2 18.5736 47.2853 15.3835 
344 2 20.1687 48.8804 16.9786 
345 2 21.7638 47.2853 15.3835 
346 2 23.3589 48.8804 16.9786 
347 2 24.954 47.2853 15.3835 
348 2 26.5491 48.8804 16.9786 
349 2 28.1442 47.2853 15.3835 
350 2 29.7393 48.8804 16.9786 
351 2 31.3344 47.2853 15.3835 
352 2 32.9295 48.8804 16.9786 
353 2 34.5245 47.2853 15.3835 
354 2 36.1196 48.8804 16.9786 
355 2 37.7147 47.2853 15.3835 
356 2 39.3098 48.8804 16.9786 
357 2 40.9049 47.2853 15.3835 
358 2 42.5 48.8804 16.9786 
359 2 44.0951 47.2853 15.3835 
360 2 45.6902 48.8804 16.9786 
361 2 47.2853 47.2853 15.3835 
362 2 48.8804 48.8804 16.9786 
363 2 50.4755 47.2853 15.3835 
364 2 52.0705 48.8804 16.9786 
365 2 53.6656 47.2853 15.3835 
366 2 55.2607 48.8804 16.9786 
367 2 56.8558 47.2853 15.3835 
368 2 58.4509 48.8804 16.9786 
369 2 60.046 47.2853 15.3835 
370 2 61.6411 48.8804 16.9786 
371 2 63.2362 47.2853 15.3835 
372 2 64.8313 48.8804 16.9786 
373 2 66.4264 47.2853 15.3835 
374 2 68.0214 48.8804 16.9786 
375 2 15.3835 50.4755 15.3835 
376 2 16.9786 52.0705 16.9786 
377 2 18.5736 50.4755 15.3835 
378 2 20.1687 52.0705 16.9786 
379 2 21.7638 50.4755 15.3835 
380 2 23.3589 52.0705 16.9786 
381 2 24.954 50.4755 15.3835 
382 2 26.5491 52.0705 16.9786 
383 2 28.1442 50.4755 15.3835 
384 2 29.7393 52.0705 16.9786 
385 2 31.3344 50.4755 15.3835 
386 2 32.9295 52.0705 16.9786 
387 2 34.5245 50.4755 15.3835 
388 2 36.1196 52.0705 16.9786 
389 2 37.7147 50.4755 15.3835 
390 2 39.3098 52.0705 16.9786 
391 2 40.9049 50.4755 15.3835 
392 2 42.5 52.0705 16.9786 
393 2 44.0951 50.4755 15.3835 
394 2 45.6902 52.0705 16.9786 
395 2 47.2853 50.4755 15.3835 
396 2 48.8804 52.0705 16.9786 
397 2 50.4755 50.4755 15.3835 
398 2 52.0705 52.0705 16.9786 
399 2 53.6656 50.4755 15.3835 
400 2 55.2607 52.0705 16.9786 
401 2 56.8558 50.4755 15.3835 
402 2 58.4509 52.0705 16.9786 
403 2 60.046 50.4755 15.3835 
404 2 61.6411 52.0705 16.9786 
405 2 63.2362 50.4755 15.3835 
406 2 64.8313 52.0705 16.9786 
407 2 66.4264 50.4755 15.3835 
408 2 68.0214 52.0705 16.9786 
409 2 15.3835 53.6656 15.3835 
410 2 16.9786 55.2607 16.9786 
411 2 18.5736 53.6656 15.3835 
412 2 20.1687 55.2607 16.9786 
413 2 21.7638 53.6656 15.3835 
414 2 23.3589 55.2607 16.9786 
415 2 24.954 53.6656 15.3835 
416 2 26.5491 55.2607 16.9786 
417 2 28.1442 53.6656 15.3835 
418 2 29.7393 55.2607 16.9786 
419 2 31.3344 53.6656 15.3835 
420 2 32.9295 55.2607 16.9786 
421 2 34.5245 53.6656 15.3835 
422 2 36.1196 55.2607 16.9786 
423 2 37.7147 53.6656 15.3835 
424 2 39.3098 55.2607 16.9786 
425 2 40.9049 53.6656 15.3835 
426 2 42.5 55.2607 16.9786 
427 2 44.0951 53.6656 15.3835 
428 2 45.6902 55.2607 16.9786 
429 2 47.2853 53.6656 15.3835 
430 2 48.8804 55.2607 16.9786 
431 2 50.4755 53.6656 15.3835 
432 2 52.0705 55.2607 16.9786 
433 2 53.6656 53.6656 15.3835 
434 2 55.2607 55.2607 16.9786 
435 2 56.8558 53.6656 15.3835 
436 2 58.4509 55.2607 16.9786 
437 2 60.046 53.6656 15.3835 
438 2 61.6411 55.2607 16.9786 
439 2 63.2362 53.6656 15.3835 
440 2 64.8313 55.2607 16.9786 
441 2 66.4264 53.6656 15.3835 
442 2 68.0214 55.2607 16.9786 
443 2 15.3835 56.8558 15.3835 
444 2 16.9786 58.4509 16.9786 
445 2 18.5736 56.8558 15.3835 
446 2 20.1687 58.4509 16.9786 
447 2 21.7638 56.8558 15.3835 
448 2 23.3589 58.4509 16.9786 
449 2 24.954 56.8558 15.3835 
450 2 26.5491 58.4509 16.9786 
451 2 28.1442 56.8558 15.3835 
452 2 29.7393 58.4509 16.9786 
453 2 31.3344 56.8558 15.3835 
454 2 32.9295 58.4509 16.9786 
455 2 34.5245 56.8558 15.3835 
456 2 36.1196 58.4509 16.9786 
457 2 37.7147 56.8558 15.3835 
458 2 39.3098 58.4509 16.9786 
459 2 40.9049 56.8558 15.3835 
460 2 42.5 58.4509 16.9786 
461 2 44.0951 56.8558 15.3835 
462 2 45.6902 58.4509 16.9786 
463 2 47.2853 56.8558 15.3835 
464 2 48.8804 58.4509 16.9786 
465 2 50.4755 56.8558 15.3835 
466 2 52.0705 58.4509 16.9786 
467 2 53.6656 56.8558 15.3835 
468 2 55.2607 58.4509 16.9786 
469 2 56.8558 56.8558 15.3835 
470 2 58.4509 58.4509 16.9786 
471 2 60.046 56.8558 15.3835 
472 2 61.6411 58.4509 16.9786 
473 2 63.2362 56.8558 15.3835 
474 2 64.8313 58.4509 16.9786 
475 2 66.4264 56.8558 15.3835 
476 2 68.0214 58.4509 16.9786 
477 2 15.3835 60.046 15.3835 
478 2 16.9786 61.6411 16.9786 
479 2 18.5736 60.046 15.3835 
480 2 20.1687 61.6411 16.9786 
481 2 21.7638 60.046 15.3835 
482 2 23.3589 61.6411 16.9786 
483 2 24.954 60.046 15.3835 
484 2 26.5491 61.6411 16.9786 
485 2 28.1442 60.046 15.3835 
486 2 29.7393 61.6411 16.9786 
487 2 31.3344 60.046 15.3835 
488 2 32.9295 61.6411 16.9786 
489 2 34.5245 60.046 15.3835 
490 2 36.1196 61.6411 16.9786 
491 2 37.7147 60.046 15.3835 
492 2 39.3098 61.6411 16.9786 
493 2 40.9049 60.046 15.3835 
494 2 42.5 61.6411 16.9786 
495 2 44.0951 60.046 15.3835 
496 2 45.6902 61.6411 16.9786 
497 2 47.2853 60.046 15.3835 
498 2 48.8804 61.6411 16.9786 
499 2 50.4755 60.046 15.3835 
500 2 52.0705 61.6411 16.9786 
501 2 53.6656 60.046 15.3835 
502 2 55.2607 61.6411 16.9786 
503 2 56.8558 60.046 15.3835 
504 2 58.4509 61.6411 16.9786 
505 2 60.046 60.046 15.3835 
506 2 61.6411 61.6411 16.9786 
507 2 63.2362 60.046 15.3835 
508 2 64.8313 61.6411 16.9786 
509 2 66.4264 60.046 15.3835 
510 2 68.0214 61.6411 16.9786 
511 2 15.3835 63.2362 15.3835 
512 2 16.9786 64.8313 16.9786 
513 2 18.5736 63.2362 15.3835 
514 2 20.1687 64.8313 16.9786 
515 2 21.7638 63.2362 15.3835 
516 2 23.3589 64.8313 16.9786 
517 2 24.954 63.2362 15.3835 
518 2 26.5491 64.8313 16.9786 
519 2 28.1442 63.2362 15.3835 
520 2 29.7393 64.8313 16.9786 
521 2 31.3344 63.2362 15.3835 
522 2 32.9295 64.8313 16.9786 
523 2 34.5245 63.2362 15.3835 
524 2 36.1196 64.8313 16.9786 
525 2 37.7147 63.2362 15.3835 
526 2 39.3098 64.8313 16.9786 
527 2 40.9049 63.2362 15.3835 
528 2 42.5 64.8313 16.9786 
529 2 44.0951 63.2362 15.3835 
530 2 45.6902 64.8313 16.9786 
531 2 47.2853 63.2362 15.3835 
532 2 48.8804 64.8313 16.9786 
533 2 50.4755 63.2362 15.3835 
534 2 52.0705 64.8313 16.9786 
535 2 53.6656 63.2362 15.3835 
536 2 55.2607 64.8313 16.9786 
537 2 56.8558 63.2362 15.3835 
538 2 58.4509 64.8313 16.9786 
539 2 60.046 63.2362 15.3835 
540 2 61.6411 64.8313 16.9786 
541 2 63.2362 63.2362 15.3835 
542 2 64.8313 64.8313 16.9786 
543 2 66.4264 63.2362 15.3835 
544 2 68.0214 64.8313 16.9786 
545 2 15.3835 66.4264 15.3835 
546 2 16.9786 68.0214 16.9786 
547 2 18.5736 66.4264 15.3835 
548 2 20.1687 68.0214 16.9786 
549 2 21.7638 66.4264 15.3835 
550 2 23.3589 68.0214 16.9786 
551 2 24.954 66.4264 15.3835 
552 2 26.5491 68.0214 16.9786 
553 2 28.1442 66.4264 15.3835 
554 2 29.7393 68.0214 16.9786 
555 2 31.3344 66.4264 15.3835 
556 2 32.9295 68.0214 16.9786 
557 2 34.5245 66.4264 15.3835 
558 2 36.1196 68.0214 16.9786 
559 2 37.7147 66.4264 15.3835 
560 2 39.3098 68.0214 16.9786 
561 2 40.9049 66.4264 15.3835 
562 2 42.5 68.0214 16.9786 
563 2 44.0951 66.4264 15.3835 
564 2 45.6902 68.0214 16.9786 
565 2 47.2853 66.4264 15.3835 
566 2 48.8804 68.0214 16.9786 
567 2 50.4755 66.4264 15.3835 
568 2 52.0705 68.0214 16.9786 
569 2 53.6656 66.4264 15.3835 
570 2 55.2607 68.0214 16.9786 
571 2 56.8558 66.4264 15.3835 
572 2 58.4509 68.0214 16.9786 
573 2 60.046 66.4264 15.3835 
574 2 61.6411 68.0214 16.9786 
575 2 63.2362 66.4264 15.3835 
576 2 64.8313 68.0214 16.9786 
577 2 66.4264 66.4264 15.3835 
578 2 68.0214 68.0214 16.9786 
579 2 15.3835 15.3835 18.5736 
580 2 16.9786 16.9786 20.1687 
581 2 18.5736 15.3835 18.5736 
582 2 20.1687 16.9786 20.1687 
583 2 21.7638 15.3835 18.5736 
584 2 23.3589 16.9786 20.1687 
585 2 24.954 15.3835 18.5736 
586 2 26.5491 16.9786 20.1687 
587 2 28.1442 15.3835 18.5736 
588 2 29.7393 16.9786 20.1687 
589 2 31.3344 15.3835 18.5736 
590 2 32.9295 16.9786 20.1687 
591 2 34.5245 15.3835 18.5736 
592 2 36.1196 16.9786 20.1687 
593 2 37.7147 15.3835 18.5736 
594 2 39.3098 16.9786 20.1687 
595 2 40.9049 15.3835 18.5736 
596 2 42.5 16.9786 20.1687 
597 2 44.0951 15.3835 18.5736 
598 2 45.6902 16.9786 20.1687 
599 2 47.2853 15.3835 18.5736 
600 2 48.8804 16.9786 20.1687 
601 2 50.4755 15.3835 18.5736 
602 2 52.0705 16.9786 20.1687 
603 2 53.6656 15.3835 18.5736 
604 2 55.2607 16.9786 20.1687 
605 2 56.8558 15.3835 18.5736 
606 2 58.4509 16.9786 20.1687 
607 2 60.046 15.3835 18.5736 
608 2 61.6411 16.9786 20.1687 
609 2 63.2362 15.3835 18.5736 
610 2 64.8313 16.9786 20.1687 
611 2 66.4264 15.3835 18.5736 
612 2 68.0214 16.9786 20.1687 
613 2 15.3835 18.5736 18.5736 
614 2 16.9786 20.1687 20.1687 
615 2 18.5736 18.5736 18.5736 
616 2 20.1687 20.1687 20.1687 
617 2 21.7638 18.5736 18.5736 
618 2 23.3589 20.1687 20.1687 
619 2 24.954 18.5736 18.5736 
620 2 26.5491 20.1687 20.1687 
621 2 28.1442 18.5736 18.5736 
622 2 29.7393 20.1687 20.1687 
623 2 31.3344 18.5736 18.5736 
624 2 32.9295 20.1687 20.1687 
625 2 34.5245 18.5736 18.5736 
626 2 36.1196 20.1687 20.1687 
627 2 37.7147 18.5736 18.5736 
628 2 39.3098 20.1687 20.1687 
629 2 40.9049 18.5736 18.5736 
630 2 42.5 20.1687 20.1687 
631 2 44.0951 18.5736 18.5736 
632 2 45.6902 20.1687 20.1687 
633 2 47.2853 18.5736 18.5736 
634 2 48.8804 20.1687 20.1687 
635 2 50.4755 18.5736 18.5736 
636 2 52.0705 20.1687 20.1687 
637 2 53.6656 18.5736 18.5736 
638 2 55.2607 20.1687 20.1687 
639 2 56.8558 18.5736 18.5736 
640 2 58.4509 20.1687 20.1687 
641 2 60.046 18.5736 18.5736 
642 2 61.6411 20.1687 20.1687 
643 2 63.2362 18.5736 18.5736 
644 2 64.8313 20.1687 20.1687 
645 2 66.4264 18.5736 18.5736 
646 2 68.0214 20.1687 20.1687 
647 2 15.3835 21.7638 18.5736 
648 2 16.9786 23.3589 20.1687 
649 2 18.5736 21.7638 18.5736 
650 2 20.1687 23.3589 20.1687 
651 2 21.7638 21.7638 18.5736 
652 2 23.3589 23.3589 20.1687 
653 2 24.954 21.7638 18.5736 
654 2 26.5491 23.3589 20.1687 
655 2 28.1442 21.7638 18.5736 
656 2 29.7393 23.3589 20.1687 
657 2 31.3344 21.7638 18.5736 
658 2 32.9295 23.3589 20.1687 
659 2 34.5245 21.7638 18.5736 
660 2 36.1196 23.3589 20.1687 
661 2 37.7147 21.7638 18.5736 
662 2 39.3098 23.3589 20.1687 
663 2 40.9049 21.7638 18.5736 
664 2 42.5 23.3589 20.1687 
665 2 44.0951 21.7638 18.5736 
666 2 45.6902 23.3589 20.1687 
667 2 47.2853 21.7638 18.5736 
668 2 48.8804 23.3589 20.1687 
669 2 50.4755 21.7638 18.5736 
670 2 52.0705 23.3589 20.1687 
671 2 53.6656 21.7638 18.5736 
672 2 55.2607 23.3589 20.1687 
673 2 56.8558 21.7638 18.5736 
674 2 58.4509 23.3589 20.1687 
675 2 60.046 21.7638 18.5736 
676 2 61.6411 23.3589 20.1687 
677 2 63.2362 21.7638 18.5736 
678 2 64.8313 23.3589 20.1687 
679 2 66.4264 21.7638 18.5736 
680 2 68.0214 23.3589 20.1687 
681 2 15.3835 24.954 18.5736 
682 2 16.9786 26.5491 20.1687 
683 2 18.5736 24.954 18.5736 
684 2 20.1687 26.5491 20.1687 
685 2 21.7638 24.954 18.5736 
686 2 23.3589 26.5491 20.1687 
687 2 24.954 24.954 18.5736 
688 2 26.5491 26.5491 20.1687 
689 2 28.1442 24.954 18.5736 
690 2 29.7393 26.5491 20.1687 
691 2 31.3344 24.954 18.5736 
692 2 32.9295 26.5491 20.1687 
693 2 34.5245 24.954 18.5736 
694 2 36.1196 26.5491 20.1687 
695 2 37.7147 24.954 18.5736 
696 2 39.3098 26.5491 20.1687 
697 2 40.9049 24.954 18.5736 
698 2 42.5 26.5491 20.1687 
699 2 44.0951 24.954 18.5736 
700 2 45.6902 26.5491 20.1687 
701 2 47.2853 24.954 18.5736 
702 2 48.8804 26.5491 20.1687 
703 2 50.4755 24.954 18.5736 
704 2 52.0705 26.5491 20.1687 
705 2 53.6656 24.954 18.5736 
706 2 55.2607 26.5491 20.1687 
707 2 56.8558 24.954 18.5736 
708 2 58.4509 26.5491 20.1687 
709 2 60.046 24.954 18.5736 
710 2 61.6411 26.5491 20.1687 
711 2 63.2362 24.954 18.5736 
712 2 64.8313 26.5491 20.1687 
713 2 66.4264 24.954 18.5736 
714 2 68.0214 26.5491 20.1687 
715 2 15.3835 28.1442 18.5736 
716 2 16.9786 29.7393 20.1687 
717 2 18.5736 28.1442 18.5736 
718 2 20.1687 29.7393 20.1687 
719 2 21.7638 28.1442 18.5736 
720 2 23.3589 29.7393 20.1687 
721 2 24.954 28.1442 18.5736 
722 2 26.5491 29.7393 20.1687 
723 2 28.1442 28.1442 18.5736 
724 2 29.7393 29.7393 20.1687 
725 2 31.3344 28.1442 18.5736 
726 2 32.9295 29.7393 20.1687 
727 2 34.5245 28.1442 18.5736 
728 2 36.1196 29.7393 20.1687 
729 2 37.7147 28.1442 18.5736 
730 2 39.3098 29.7393 20.1687 
731 2 40.9049 28.1442 18.5736 
732 2 42.5 29.7393 20.1687 
733 2 44.0951 28.1442 18.5736 
734 2 45.6902 29.7393 20.1687 
735 2 47.2853 28.1442 18.5736 
736 2 48.8804 29.7393 20.1687 
737 2 50.4755 28.1442 18.5736 
738 2 52.0705 29.7393 20.1687 
739 2 53.6656 28.1442 18.5736 
740 2 55.2607 29.7393 20.1687 
741 2 56.8558 28.1442 18.5736 
742 2 58.4509 29.7393 20.1687 
743 2 60.046 28.1442 18.5736 
744 2 61.6411 29.7393 20.1687 
745 2 63.2362 28.1442 18.5736 
746 2 64.8313 29.7393 20.1687 
747 2 66.4264 28.1442 18.5736 
748 2 68.0214 29.7393 20.1687 
749 2 15.3835 31.3344 18.5736 
750 2 16.9786 32.9295 20.1687 
751 2 18.5736 31.3344 18.5736 
752 2 20.1687 32.9295 20.1687 
753 2 21.7638 31.3344 18.5736 
754 2 23.3589 32.9295 20.1687 
755 2 24.954 31.3344 18.5736 
756 2 26.5491 32.9295 20.1687 
757 2 28.1442 31.3344 18.5736 
758 2 29.7393 32.9295 20.1687 
759 2 31.3344 31.3344 18.5736 
760 2 32.9295 32.9295 20.1687 
761 2 34.5245 31.3344 18.5736 
762 2 36.1196 32.9295 20.1687 
763 2 37.7147 31.3344 18.5736 
764 2 39.3098 32.9295 20.1687 
765 2 40.9049 31.3344 18.5736 
766 2 42.5 32.9295 20.1687 
767 2 44.0951 31.3344 18.5736 
768 2 45.6902 32.9295 20.1687 
769 2 47.2853 31.3344 18.5736 
770 2 48.8804 32.9295 20.1687 
771 2 50.4755 31.3344 18.5736 
772 2 52.0705 32.9295 20.1687 
773 2 53.6656 31.3344 18.5736 
774 2 55.2607 32.9295 20.1687 
775 2 56.8558 31.3344 18.5736 
776 2 58.4509 32.9295 20.1687 
777 2 60.046 31.3344 18.5736 
778 2 61.6411 32.9295 20.1687 
779 2 63.2362 31.3344 18.5736 
780 2 64.8313 32.9295 20.1687 
781 2 66.4264 31.3344 18.5736 
782 2 68.0214 32.9295 20.1687 
783 2 15.3835 34.5245 18.5736 
784 2 16.9786 36.1196 20.1687 
785 2 18.5736 34.5245 18.5736 
786 2 20.1687 36.1196 20.1687 
787 2 21.7638 34.5245 18.5736 
788 2 23.3589 36.1196 20.1687 
789 2 24.954 34.5245 18.5736 
790 2 26.5491 36.1196 20.1687 
791 2 28.1442 34.5245 18.5736 
792 2 29.7393 36.1196 20.1687 
793 2 31.3344 34.5245 18.5736 
794 2 32.9295 36.1196 20.1687 
795 2 34.5245 34.5245 18.5736 
796 2 36.1196 36.1196 20.1687 
797 2 37.7147 34.5245 18.5736 
798 2 39.3098 36.1196 20.1687 
799 2 40.9049 34.5245 18.5736 
800 2 42.5 36.1196 20.1687 
801 2 44.0951 34.5245 18.5736 
802 2 45.6902 36.1196 20.1687 
803 2 47.2853 34.5245 18.5736 
804 2 48.8804 36.1196 20.1687 
805 2 50.4755 34.5245 18.5736 
806 2 52.0705 36.1196 20.1687 
807 2 53.6656 34.5245 18.5736 
808 2 55.2607 36.1196 20.1687 
809 2 56.8558 34.5245 18.5736 
810 2 58.4509 36.1196 20.1687 
811 2 60.046 34.5245 18.5736 
812 2 61.6411 36.1196 20.1687 
813 2 63.2362 34.5245 18.5736 
814 2 64.8313 36.1196 20.1687 
815 2 66.4264 34.5245 18.5736 
816 2 68.0214 36.1196 20.1687 
817 2 15.3835 37.7147 18.5736 
818 2 16.9786 39.3098 20.1687 
819 2 18.5736 37.7147 18.5736 
820 2 20.1687 39.3098 20.1687 
821 2 21.7638 37.7147 18.5736 
822 2 23.3589 39.3098 20.1687 
823 2 24.954 37.7147 18.5736 
824 2 26.5491 39.3098 20.1687 
825 2 28.1442 37.7147 18.5736 
826 2 29.7393 39.3098 20.1687 
827 2 31.3344 37.7147 18.5736 
828 2 32.9295 39.3098 20.1687 
829 2 34.5245 37.7147 18.5736 
830 2 36.1196 39.3098 20.1687 
831 2 37.7147 37.7147 18.5736 
832 2 39.3098 39.3098 20.1687 
833 2 40.9049 37.7147 18.5736 
834 2 42.5 39.3098 20.1687 
835 2 44.0951 37.7147 18.5736 
836 2 45.6902 39.3098 20.1687 
837 2 47.2853 37.7147 18.5736 
838 2 48.8804 39.3098 20.1687 
839 2 50.4755 37.7147 18.5736 
840 2 52.0705 39.3098 20.1687 
841 2 53.6656 37.7147 18.5736 
842 2 55.2607 39.3098 20.1687 
843 2 56.8558 37.7147 18.5736 
844 2 58.4509 39.3098 20.1687 
845 2 60.046 37.7147 18.5736 
846 2 61.6411 39.3098 20.1687 
847 2 63.2362 37.7147 18.5736 
848 2 64.8313 39.3098 20.1687 
849 2 66.4264 37.7147 18.5736 
850 2 68.0214 39.3098 20.1687 
851 2 15.3835 40.9049 18.5736 
852 2 16.9786 42.5 20.1687 
853 2 18.5736 40.9049 18.5736 
854 2 20.1687 42.5 20.1687 
855 2 21.7638 40.9049 18.5736 
856 2 23.3589 42.5 20.1687 
857 2 24.954 40.9049 18.5736 
858 2 26.5491 42.5 20.1687 
859 2 28.1442 40.9049 18.5736 
860 2 29.7393 42.5 20.1687 
861 2 31.3344 40.9049 18.5736 
862 2 32.9295 42.5 20.1687 
863 2 34.5245 40.9049 18.5736 
864 2 36.1196 42.5 20.1687 
865 2 37.7147 40.9049 18.5736 
866 2 39.3098 42.5 20.1687 
867 2 40.9049 40.9049 18.5736 
868 2 42.5 42.5 20.1687 
869 2 44.0951 40.9049 18.5736 
870 2 45.6902 42.5 20.1687 
871 2 47.2853 40.9049 18.5736 
872 2 48.8804 42.5 20.1687 
873 2 50.4755 40.9049 18.5736 
874 2 52.0705 42.5 20.1687 
875 2 53.6656 40.9049 18.5736 
876 2 55.2607 42.5 20.1687 
877 2 56.8558 40.9049 18.5736 
878 2 58.4509 42.5 20.1687 
879 2 60.046 40.9049 18.5736 
880 2 61.6411 42.5 20.1687 
881 2 63.2362 40.9049 18.5736 
882 2 64.8313 42.5 20.1687 
883 2 66.4264 40.9049 18.5736 
884 2 68.0214 42.5 20.1687 
885 2 15.3835 44.0951 18.5736 
886 2 16.9786 45.6902 20.1687 
887 2 18.5736 44.0951 18.5736 
888 2 20.1687 45.6902 20.1687 
889 2 21.7638 44.0951 18.5736 
890 2 23.3589 45.6902 20.1687 
891 2 24.954 44.0951 18.5736 
892 2 26.5491 45.6902 20.1687 
893 2 28.1442 44.0951 18.5736 
894 2 29.7393 45.6902 20.1687 
895 2 31.3344 44.0951 18.5736 
896 2 32.9295 45.6902 20.1687 
897 2 34.5245 44.0951 18.5736 
898 2 36.1196 45.6902 20.1687 
899 2 37.7147 44.0951 18.5736 
900 2 39.3098 45.6902 20.1687 
901 2 40.9049 44.0951 18.5736 
902 2 42.5 45.6902 20.1687 
903 2 44.0951 44.0951 18.5736 
904 2 45.6902 45.6902 20.1687 
905 2 47.2853 44.0951 18.5736 
906 2 48.8804 45.6902 20.1687 
907 2 50.4755 44.0951 18.5736 
908 2 52.0705 45.6902 20.1687 
909 2 53.6656 44.0951 18.5736 
910 2 55.2607 45.6902 20.1687 
911 2 56.8558 44.0951 18.5736 
912 2 58.4509 45.6902 20.1687 
913 2 60.046 44.0951 18.5736 
914 2 61.6411 45.6902 20.1687 
915 2 63.2362 44.0951 18.5736 
916 2 64.8313 45.6902 20.1687 
917 2 66.4264 44.0951 18.5736 
918 2 68.0214 45.6902 20.1687 
919 2 15.3835 47.2853 18.5736 
920 2 16.9786 48.8804 20.1687 
921 2 18.5736 47.2853 18.5736 
922 2 20.1687 48.8804 20.1687 
923 2 21.7638 47.2853 18.5736 
924 2 23.3589 48.8804 20.1687 
925 2 24.954 47.2853 18.5736 
926 2 26.5491 48.8804 20.1687 
927 2 28.1442 47.2853 18.5736 
928 2 29.7393 48.8804 20.1687 
929 2 31.3344 47.2853 18.5736 
930 2 32.9295 48.8804 20.1687 
931 2 34.5245 47.2853 18.5736 
932 2 36.1196 48.8804 20.1687 
933 2 37.7147 47.2853 18.5736 
934 2 39.3098 48.8804 20.1687 
935 2 40.9049 47.2853 18.5736 
936 2 42.5 48.8804 20.1687 
937 2 44.0951 47.2853 18.5736 
938 2 45.6902 48.8804 20.1687 
939 2 47.2853 47.2853 18.5736 
940 2 48.8804 48.8804 20.1687 
941 2 50.4755 47.2853 18.5736 
942 2 52.0705 48.8804 20.1687 
943 2 53.6656 47.2853 18.5736 
944 2 55.2607 48.8804 20.1687 
945 2 56.8558 47.2853 18.5736 
946 2 58.4509 48.8804 20.1687 
947 2 60.046 47.2853 18.5736 
948 2 61.6411 48.8804 20.1687 
949 2 63.2362 47.2853 18.5736 
950 2 64.8313 48.8804 20.1687 
951 2 66.4264 47.2853 18.5736 
952 2 68.0214 48.8804 20.1687 
953 2 15.3835 50.4755 18.5736 
954 2 16.9786 52.0705 20.1687 
955 2 18.5736 50.4755 18.5736 
956 2 20.1687 52.0705 20.1687 
957 2 21.7638 50.4755 18.5736 
958 2 23.3589 52.0705 20.1687 
959 2 24.954 50.4755 18.5736 
960 2 26.5491 52.0705 20.1687 
961 2 28.1442 50.4755 18.5736 
962 2 29.7393 52.0705 20.1687 
963 2 31.3344 50.4755 18.5736 
964 2 32.9295 52.0705 20.1687 
965 2 34.5245 50.4755 18.5736 
966 2 36.1196 52.0705 20.1687 
967 2 37.7147 50.4755 18.5736 
968 2 39.3098 52.0705 20.1687 
969 2 40.9049 50.4755 18.5736 
970 2 42.5 52.0705 20.1687 
971 2 44.0951 50.4755 18.5736 
972 2 45.6902 52.0705 20.1687 
973 2 47.2853 50.4755 18.5736 