ITEM: TIMESTEP
87
ITEM: NUMBER OF ATOMS
19652
ITEM: BOX BOUNDS pp pp pp
1.8034219609289881e+01 6.6965780390709810e+01
3.1236184638144874e+01 1.1598813400521011e+02
2.9449757301369822e+01 1.0935466145634345e+02
ITEM: ATOMS id type xu yu zu 
1 2 18.0342 31.2362 29.4498 
2 2 19.4734 33.7289 29.4498 
3 2 19.4734 35.3907 31.7999 
4 2 18.0342 32.898 31.7999 
5 2 20.9125 31.2362 29.4498 
6 2 22.3517 33.7289 29.4498 
7 2 22.3517 35.3907 31.7999 
8 2 20.9125 32.898 31.7999 
9 2 23.7909 31.2362 29.4498 
10 2 25.23 33.7289 29.4498 
11 2 25.23 35.3907 31.7999 
12 2 23.7909 32.898 31.7999 
13 2 26.6692 31.2362 29.4498 
14 2 28.1084 33.7289 29.4498 
15 2 28.1084 35.3907 31.7999 
16 2 26.6692 32.898 31.7999 
17 2 29.5475 31.2362 29.4498 
18 2 30.9867 33.7289 29.4498 
19 2 30.9867 35.3907 31.7999 
20 2 29.5475 32.898 31.7999 
21 2 32.4259 31.2362 29.4498 
22 2 33.865 33.7289 29.4498 
23 2 33.865 35.3907 31.7999 
24 2 32.4259 32.898 31.7999 
25 2 35.3042 31.2362 29.4498 
26 2 36.7433 33.7289 29.4498 
27 2 36.7433 35.3907 31.7999 
28 2 35.3042 32.898 31.7999 
29 2 38.1825 31.2362 29.4498 
30 2 39.6217 33.7289 29.4498 
31 2 39.6217 35.3907 31.7999 
32 2 38.1825 32.898 31.7999 
33 2 41.0608 31.2362 29.4498 
34 2 42.5 33.7289 29.4498 
35 2 42.5 35.3907 31.7999 
36 2 41.0608 32.898 31.7999 
37 2 43.9392 31.2362 29.4498 
38 2 45.3783 33.7289 29.4498 
39 2 45.3783 35.3907 31.7999 
40 2 43.9392 32.898 31.7999 
41 2 46.8175 31.2362 29.4498 
42 2 48.2567 33.7289 29.4498 
43 2 48.2567 35.3907 31.7999 
44 2 46.8175 32.898 31.7999 
45 2 49.6958 31.2362 29.4498 
46 2 51.135 33.7289 29.4498 
47 2 51.135 35.3907 31.7999 
48 2 49.6958 32.898 31.7999 
49 2 52.5741 31.2362 29.4498 
50 2 54.0133 33.7289 29.4498 
51 2 54.0133 35.3907 31.7999 
52 2 52.5741 32.898 31.7999 
53 2 55.4525 31.2362 29.4498 
54 2 56.8916 33.7289 29.4498 
55 2 56.8916 35.3907 31.7999 
56 2 55.4525 32.898 31.7999 
57 2 58.3308 31.2362 29.4498 
58 2 59.77 33.7289 29.4498 
59 2 59.77 35.3907 31.7999 
60 2 58.3308 32.898 31.7999 
61 2 61.2091 31.2362 29.4498 
62 2 62.6483 33.7289 29.4498 
63 2 62.6483 35.3907 31.7999 
64 2 61.2091 32.898 31.7999 
65 2 64.0875 31.2362 29.4498 
66 2 65.5266 33.7289 29.4498 
67 2 65.5266 35.3907 31.7999 
68 2 64.0875 32.898 31.7999 
69 2 18.0342 36.2216 29.4498 
70 2 19.4734 38.7143 29.4498 
71 2 19.4734 40.3761 31.7999 
72 2 18.0342 37.8834 31.7999 
73 2 20.9125 36.2216 29.4498 
74 2 22.3517 38.7143 29.4498 
75 2 22.3517 40.3761 31.7999 
76 2 20.9125 37.8834 31.7999 
77 2 23.7909 36.2216 29.4498 
78 2 25.23 38.7143 29.4498 
79 2 25.23 40.3761 31.7999 
80 2 23.7909 37.8834 31.7999 
81 2 26.6692 36.2216 29.4498 
82 2 28.1084 38.7143 29.4498 
83 2 28.1084 40.3761 31.7999 
84 2 26.6692 37.8834 31.7999 
85 2 29.5475 36.2216 29.4498 
86 2 30.9867 38.7143 29.4498 
87 2 30.9867 40.3761 31.7999 
88 2 29.5475 37.8834 31.7999 
89 2 32.4259 36.2216 29.4498 
90 2 33.865 38.7143 29.4498 
91 2 33.865 40.3761 31.7999 
92 2 32.4259 37.8834 31.7999 
93 2 35.3042 36.2216 29.4498 
94 2 36.7433 38.7143 29.4498 
95 2 36.7433 40.3761 31.7999 
96 2 35.3042 37.8834 31.7999 
97 2 38.1825 36.2216 29.4498 
98 2 39.6217 38.7143 29.4498 
99 2 39.6217 40.3761 31.7999 
100 2 38.1825 37.8834 31.7999 
101 2 41.0608 36.2216 29.4498 
102 2 42.5 38.7143 29.4498 
103 2 42.5 40.3761 31.7999 
104 2 41.0608 37.8834 31.7999 
105 2 43.9392 36.2216 29.4498 
106 2 45.3783 38.7143 29.4498 
107 2 45.3783 40.3761 31.7999 
108 2 43.9392 37.8834 31.7999 
109 2 46.8175 36.2216 29.4498 
110 2 48.2567 38.7143 29.4498 
111 2 48.2567 40.3761 31.7999 
112 2 46.8175 37.8834 31.7999 
113 2 49.6958 36.2216 29.4498 
114 2 51.135 38.7143 29.4498 
115 2 51.135 40.3761 31.7999 
116 2 49.6958 37.8834 31.7999 
117 2 52.5741 36.2216 29.4498 
118 2 54.0133 38.7143 29.4498 
119 2 54.0133 40.3761 31.7999 
120 2 52.5741 37.8834 31.7999 
121 2 55.4525 36.2216 29.4498 
122 2 56.8916 38.7143 29.4498 
123 2 56.8916 40.3761 31.7999 
124 2 55.4525 37.8834 31.7999 
125 2 58.3308 36.2216 29.4498 
126 2 59.77 38.7143 29.4498 
127 2 59.77 40.3761 31.7999 
128 2 58.3308 37.8834 31.7999 
129 2 61.2091 36.2216 29.4498 
130 2 62.6483 38.7143 29.4498 
131 2 62.6483 40.3761 31.7999 
132 2 61.2091 37.8834 31.7999 
133 2 64.0875 36.2216 29.4498 
134 2 65.5266 38.7143 29.4498 
135 2 65.5266 40.3761 31.7999 
136 2 64.0875 37.8834 31.7999 
137 2 18.0342 41.207 29.4498 
138 2 19.4734 43.6997 29.4498 
139 2 19.4734 45.3615 31.7999 
140 2 18.0342 42.8688 31.7999 
141 2 20.9125 41.207 29.4498 
142 2 22.3517 43.6997 29.4498 
143 2 22.3517 45.3615 31.7999 
144 2 20.9125 42.8688 31.7999 
145 2 23.7909 41.207 29.4498 
146 2 25.23 43.6997 29.4498 
147 2 25.23 45.3615 31.7999 
148 2 23.7909 42.8688 31.7999 
149 2 26.6692 41.207 29.4498 
150 2 28.1084 43.6997 29.4498 
151 2 28.1084 45.3615 31.7999 
152 2 26.6692 42.8688 31.7999 
153 2 29.5475 41.207 29.4498 
154 2 30.9867 43.6997 29.4498 
155 2 30.9867 45.3615 31.7999 
156 2 29.5475 42.8688 31.7999 
157 2 32.4259 41.207 29.4498 
158 2 33.865 43.6997 29.4498 
159 2 33.865 45.3615 31.7999 
160 2 32.4259 42.8688 31.7999 
161 2 35.3042 41.207 29.4498 
162 2 36.7433 43.6997 29.4498 
163 2 36.7433 45.3615 31.7999 
164 2 35.3042 42.8688 31.7999 
165 2 38.1825 41.207 29.4498 
166 2 39.6217 43.6997 29.4498 
167 2 39.6217 45.3615 31.7999 
168 2 38.1825 42.8688 31.7999 
169 2 41.0608 41.207 29.4498 
170 2 42.5 43.6997 29.4498 
171 2 42.5 45.3615 31.7999 
172 2 41.0608 42.8688 31.7999 
173 2 43.9392 41.207 29.4498 
174 2 45.3783 43.6997 29.4498 
175 2 45.3783 45.3615 31.7999 
176 2 43.9392 42.8688 31.7999 
177 2 46.8175 41.207 29.4498 
178 2 48.2567 43.6997 29.4498 
179 2 48.2567 45.3615 31.7999 
180 2 46.8175 42.8688 31.7999 
181 2 49.6958 41.207 29.4498 
182 2 51.135 43.6997 29.4498 
183 2 51.135 45.3615 31.7999 
184 2 49.6958 42.8688 31.7999 
185 2 52.5741 41.207 29.4498 
186 2 54.0133 43.6997 29.4498 
187 2 54.0133 45.3615 31.7999 
188 2 52.5741 42.8688 31.7999 
189 2 55.4525 41.207 29.4498 
190 2 56.8916 43.6997 29.4498 
191 2 56.8916 45.3615 31.7999 
192 2 55.4525 42.8688 31.7999 
193 2 58.3308 41.207 29.4498 
194 2 59.77 43.6997 29.4498 
195 2 59.77 45.3615 31.7999 
196 2 58.3308 42.8688 31.7999 
197 2 61.2091 41.207 29.4498 
198 2 62.6483 43.6997 29.4498 
199 2 62.6483 45.3615 31.7999 
200 2 61.2091 42.8688 31.7999 
201 2 64.0875 41.207 29.4498 
202 2 65.5266 43.6997 29.4498 
203 2 65.5266 45.3615 31.7999 
204 2 64.0875 42.8688 31.7999 
205 2 18.0342 46.1924 29.4498 
206 2 19.4734 48.6851 29.4498 
207 2 19.4734 50.3469 31.7999 
208 2 18.0342 47.8542 31.7999 
209 2 20.9125 46.1924 29.4498 
210 2 22.3517 48.6851 29.4498 
211 2 22.3517 50.3469 31.7999 
212 2 20.9125 47.8542 31.7999 
213 2 23.7909 46.1924 29.4498 
214 2 25.23 48.6851 29.4498 
215 2 25.23 50.3469 31.7999 
216 2 23.7909 47.8542 31.7999 
217 2 26.6692 46.1924 29.4498 
218 2 28.1084 48.6851 29.4498 
219 2 28.1084 50.3469 31.7999 
220 2 26.6692 47.8542 31.7999 
221 2 29.5475 46.1924 29.4498 
222 2 30.9867 48.6851 29.4498 
223 2 30.9867 50.3469 31.7999 
224 2 29.5475 47.8542 31.7999 
225 2 32.4259 46.1924 29.4498 
226 2 33.865 48.6851 29.4498 
227 2 33.865 50.3469 31.7999 
228 2 32.4259 47.8542 31.7999 
229 2 35.3042 46.1924 29.4498 
230 2 36.7433 48.6851 29.4498 
231 2 36.7433 50.3469 31.7999 
232 2 35.3042 47.8542 31.7999 
233 2 38.1825 46.1924 29.4498 
234 2 39.6217 48.6851 29.4498 
235 2 39.6217 50.3469 31.7999 
236 2 38.1825 47.8542 31.7999 
237 2 41.0608 46.1924 29.4498 
238 2 42.5 48.6851 29.4498 
239 2 42.5 50.3469 31.7999 
240 2 41.0608 47.8542 31.7999 
241 2 43.9392 46.1924 29.4498 
242 2 45.3783 48.6851 29.4498 
243 2 45.3783 50.3469 31.7999 
244 2 43.9392 47.8542 31.7999 
245 2 46.8175 46.1924 29.4498 
246 2 48.2567 48.6851 29.4498 
247 2 48.2567 50.3469 31.7999 
248 2 46.8175 47.8542 31.7999 
249 2 49.6958 46.1924 29.4498 
250 2 51.135 48.6851 29.4498 
251 2 51.135 50.3469 31.7999 
252 2 49.6958 47.8542 31.7999 
253 2 52.5741 46.1924 29.4498 
254 2 54.0133 48.6851 29.4498 
255 2 54.0133 50.3469 31.7999 
256 2 52.5741 47.8542 31.7999 
257 2 55.4525 46.1924 29.4498 
258 2 56.8916 48.6851 29.4498 
259 2 56.8916 50.3469 31.7999 
260 2 55.4525 47.8542 31.7999 
261 2 58.3308 46.1924 29.4498 
262 2 59.77 48.6851 29.4498 
263 2 59.77 50.3469 31.7999 
264 2 58.3308 47.8542 31.7999 
265 2 61.2091 46.1924 29.4498 
266 2 62.6483 48.6851 29.4498 
267 2 62.6483 50.3469 31.7999 
268 2 61.2091 47.8542 31.7999 
269 2 64.0875 46.1924 29.4498 
270 2 65.5266 48.6851 29.4498 
271 2 65.5266 50.3469 31.7999 
272 2 64.0875 47.8542 31.7999 
273 2 18.0342 51.1778 29.4498 
274 2 19.4734 53.6705 29.4498 
275 2 19.4734 55.3323 31.7999 
276 2 18.0342 52.8396 31.7999 
277 2 20.9125 51.1778 29.4498 
278 2 22.3517 53.6705 29.4498 
279 2 22.3517 55.3323 31.7999 
280 2 20.9125 52.8396 31.7999 
281 2 23.7909 51.1778 29.4498 
282 2 25.23 53.6705 29.4498 
283 2 25.23 55.3323 31.7999 
284 2 23.7909 52.8396 31.7999 
285 2 26.6692 51.1778 29.4498 
286 2 28.1084 53.6705 29.4498 
287 2 28.1084 55.3323 31.7999 
288 2 26.6692 52.8396 31.7999 
289 2 29.5475 51.1778 29.4498 
290 2 30.9867 53.6705 29.4498 
291 2 30.9867 55.3323 31.7999 
292 2 29.5475 52.8396 31.7999 
293 2 32.4259 51.1778 29.4498 
294 2 33.865 53.6705 29.4498 
295 2 33.865 55.3323 31.7999 
296 2 32.4259 52.8396 31.7999 
297 2 35.3042 51.1778 29.4498 
298 2 36.7433 53.6705 29.4498 
299 2 36.7433 55.3323 31.7999 
300 2 35.3042 52.8396 31.7999 
301 2 38.1825 51.1778 29.4498 
302 2 39.6217 53.6705 29.4498 
303 2 39.6217 55.3323 31.7999 
304 2 38.1825 52.8396 31.7999 
305 2 41.0608 51.1778 29.4498 
306 2 42.5 53.6705 29.4498 
307 2 42.5 55.3323 31.7999 
308 2 41.0608 52.8396 31.7999 
309 2 43.9392 51.1778 29.4498 
310 2 45.3783 53.6705 29.4498 
311 2 45.3783 55.3323 31.7999 
312 2 43.9392 52.8396 31.7999 
313 2 46.8175 51.1778 29.4498 
314 2 48.2567 53.6705 29.4498 
315 2 48.2567 55.3323 31.7999 
316 2 46.8175 52.8396 31.7999 
317 2 49.6958 51.1778 29.4498 
318 2 51.135 53.6705 29.4498 
319 2 51.135 55.3323 31.7999 
320 2 49.6958 52.8396 31.7999 
321 2 52.5741 51.1778 29.4498 
322 2 54.0133 53.6705 29.4498 
323 2 54.0133 55.3323 31.7999 
324 2 52.5741 52.8396 31.7999 
325 2 55.4525 51.1778 29.4498 
326 2 56.8916 53.6705 29.4498 
327 2 56.8916 55.3323 31.7999 
328 2 55.4525 52.8396 31.7999 
329 2 58.3308 51.1778 29.4498 
330 2 59.77 53.6705 29.4498 
331 2 59.77 55.3323 31.7999 
332 2 58.3308 52.8396 31.7999 
333 2 61.2091 51.1778 29.4498 
334 2 62.6483 53.6705 29.4498 
335 2 62.6483 55.3323 31.7999 
336 2 61.2091 52.8396 31.7999 
337 2 64.0875 51.1778 29.4498 
338 2 65.5266 53.6705 29.4498 
339 2 65.5266 55.3323 31.7999 
340 2 64.0875 52.8396 31.7999 
341 2 18.0342 56.1632 29.4498 
342 2 19.4734 58.6559 29.4498 
343 2 19.4734 60.3177 31.7999 
344 2 18.0342 57.825 31.7999 
345 2 20.9125 56.1632 29.4498 
346 2 22.3517 58.6559 29.4498 
347 2 22.3517 60.3177 31.7999 
348 2 20.9125 57.825 31.7999 
349 2 23.7909 56.1632 29.4498 
350 2 25.23 58.6559 29.4498 
351 2 25.23 60.3177 31.7999 
352 2 23.7909 57.825 31.7999 
353 2 26.6692 56.1632 29.4498 
354 2 28.1084 58.6559 29.4498 
355 2 28.1084 60.3177 31.7999 
356 2 26.6692 57.825 31.7999 
357 2 29.5475 56.1632 29.4498 
358 2 30.9867 58.6559 29.4498 
359 2 30.9867 60.3177 31.7999 
360 2 29.5475 57.825 31.7999 
361 2 32.4259 56.1632 29.4498 
362 2 33.865 58.6559 29.4498 
363 2 33.865 60.3177 31.7999 
364 2 32.4259 57.825 31.7999 
365 2 35.3042 56.1632 29.4498 
366 2 36.7433 58.6559 29.4498 
367 2 36.7433 60.3177 31.7999 
368 2 35.3042 57.825 31.7999 
369 2 38.1825 56.1632 29.4498 
370 2 39.6217 58.6559 29.4498 
371 2 39.6217 60.3177 31.7999 
372 2 38.1825 57.825 31.7999 
373 2 41.0608 56.1632 29.4498 
374 2 42.5 58.6559 29.4498 
375 2 42.5 60.3177 31.7999 
376 2 41.0608 57.825 31.7999 
377 2 43.9392 56.1632 29.4498 
378 2 45.3783 58.6559 29.4498 
379 2 45.3783 60.3177 31.7999 
380 2 43.9392 57.825 31.7999 
381 2 46.8175 56.1632 29.4498 
382 2 48.2567 58.6559 29.4498 
383 2 48.2567 60.3177 31.7999 
384 2 46.8175 57.825 31.7999 
385 2 49.6958 56.1632 29.4498 
386 2 51.135 58.6559 29.4498 
387 2 51.135 60.3177 31.7999 
388 2 49.6958 57.825 31.7999 
389 2 52.5741 56.1632 29.4498 
390 2 54.0133 58.6559 29.4498 
391 2 54.0133 60.3177 31.7999 
392 2 52.5741 57.825 31.7999 
393 2 55.4525 56.1632 29.4498 
394 2 56.8916 58.6559 29.4498 
395 2 56.8916 60.3177 31.7999 
396 2 55.4525 57.825 31.7999 
397 2 58.3308 56.1632 29.4498 
398 2 59.77 58.6559 29.4498 
399 2 59.77 60.3177 31.7999 
400 2 58.3308 57.825 31.7999 
401 2 61.2091 56.1632 29.4498 
402 2 62.6483 58.6559 29.4498 
403 2 62.6483 60.3177 31.7999 
404 2 61.2091 57.825 31.7999 
405 2 64.0875 56.1632 29.4498 
406 2 65.5266 58.6559 29.4498 
407 2 65.5266 60.3177 31.7999 
408 2 64.0875 57.825 31.7999 
409 2 18.0342 61.1486 29.4498 
410 2 19.4734 63.6413 29.4498 
411 2 19.4734 65.3031 31.7999 
412 2 18.0342 62.8104 31.7999 
413 2 20.9125 61.1486 29.4498 
414 2 22.3517 63.6413 29.4498 
415 2 22.3517 65.3031 31.7999 
416 2 20.9125 62.8104 31.7999 
417 2 23.7909 61.1486 29.4498 
418 2 25.23 63.6413 29.4498 
419 2 25.23 65.3031 31.7999 
420 2 23.7909 62.8104 31.7999 
421 2 26.6692 61.1486 29.4498 
422 2 28.1084 63.6413 29.4498 
423 2 28.1084 65.3031 31.7999 
424 2 26.6692 62.8104 31.7999 
425 2 29.5475 61.1486 29.4498 
426 2 30.9867 63.6413 29.4498 
427 2 30.9867 65.3031 31.7999 
428 2 29.5475 62.8104 31.7999 
429 2 32.4259 61.1486 29.4498 
430 2 33.865 63.6413 29.4498 
431 2 33.865 65.3031 31.7999 
432 2 32.4259 62.8104 31.7999 
433 2 35.3042 61.1486 29.4498 
434 2 36.7433 63.6413 29.4498 
435 2 36.7433 65.3031 31.7999 
436 2 35.3042 62.8104 31.7999 
437 2 38.1825 61.1486 29.4498 
438 2 39.6217 63.6413 29.4498 
439 2 39.6217 65.3031 31.7999 
440 2 38.1825 62.8104 31.7999 
441 2 41.0608 61.1486 29.4498 
442 2 42.5 63.6413 29.4498 
443 2 42.5 65.3031 31.7999 
444 2 41.0608 62.8104 31.7999 
445 2 43.9392 61.1486 29.4498 
446 2 45.3783 63.6413 29.4498 
447 2 45.3783 65.3031 31.7999 
448 2 43.9392 62.8104 31.7999 
449 2 46.8175 61.1486 29.4498 
450 2 48.2567 63.6413 29.4498 
451 2 48.2567 65.3031 31.7999 
452 2 46.8175 62.8104 31.7999 
453 2 49.6958 61.1486 29.4498 
454 2 51.135 63.6413 29.4498 
455 2 51.135 65.3031 31.7999 
456 2 49.6958 62.8104 31.7999 
457 2 52.5741 61.1486 29.4498 
458 2 54.0133 63.6413 29.4498 
459 2 54.0133 65.3031 31.7999 
460 2 52.5741 62.8104 31.7999 
461 2 55.4525 61.1486 29.4498 
462 2 56.8916 63.6413 29.4498 
463 2 56.8916 65.3031 31.7999 
464 2 55.4525 62.8104 31.7999 
465 2 58.3308 61.1486 29.4498 
466 2 59.77 63.6413 29.4498 
467 2 59.77 65.3031 31.7999 
468 2 58.3308 62.8104 31.7999 
469 2 61.2091 61.1486 29.4498 
470 2 62.6483 63.6413 29.4498 
471 2 62.6483 65.3031 31.7999 
472 2 61.2091 62.8104 31.7999 
473 2 64.0875 61.1486 29.4498 
474 2 65.5266 63.6413 29.4498 
475 2 65.5266 65.3031 31.7999 
476 2 64.0875 62.8104 31.7999 
477 2 18.0342 66.134 29.4498 
478 2 19.4734 68.6268 29.4498 
479 2 19.4734 70.2886 31.7999 
480 2 18.0342 67.7958 31.7999 
481 2 20.9125 66.134 29.4498 
482 2 22.3517 68.6268 29.4498 
483 2 22.3517 70.2886 31.7999 
484 2 20.9125 67.7958 31.7999 
485 2 23.7909 66.134 29.4498 
486 2 25.23 68.6268 29.4498 
487 2 25.23 70.2886 31.7999 
488 2 23.7909 67.7958 31.7999 
489 2 26.6692 66.134 29.4498 
490 2 28.1084 68.6268 29.4498 
491 2 28.1084 70.2886 31.7999 
492 2 26.6692 67.7958 31.7999 
493 2 29.5475 66.134 29.4498 
494 2 30.9867 68.6268 29.4498 
495 2 30.9867 70.2886 31.7999 
496 2 29.5475 67.7958 31.7999 
497 2 32.4259 66.134 29.4498 
498 2 33.865 68.6268 29.4498 
499 2 33.865 70.2886 31.7999 
500 2 32.4259 67.7958 31.7999 
501 2 35.3042 66.134 29.4498 
502 2 36.7433 68.6268 29.4498 
503 2 36.7433 70.2886 31.7999 
504 2 35.3042 67.7958 31.7999 
505 2 38.1825 66.134 29.4498 
506 2 39.6217 68.6268 29.4498 
507 2 39.6217 70.2886 31.7999 
508 2 38.1825 67.7958 31.7999 
509 2 41.0608 66.134 29.4498 
510 2 42.5 68.6268 29.4498 
511 2 42.5 70.2886 31.7999 
512 2 41.0608 67.7958 31.7999 
513 2 43.9392 66.134 29.4498 
514 2 45.3783 68.6268 29.4498 
515 2 45.3783 70.2886 31.7999 
516 2 43.9392 67.7958 31.7999 
517 2 46.8175 66.134 29.4498 
518 2 48.2567 68.6268 29.4498 
519 2 48.2567 70.2886 31.7999 
520 2 46.8175 67.7958 31.7999 
521 2 49.6958 66.134 29.4498 
522 2 51.135 68.6268 29.4498 
523 2 51.135 70.2886 31.7999 
524 2 49.6958 67.7958 31.7999 
525 2 52.5741 66.134 29.4498 
526 2 54.0133 68.6268 29.4498 
527 2 54.0133 70.2886 31.7999 
528 2 52.5741 67.7958 31.7999 
529 2 55.4525 66.134 29.4498 
530 2 56.8916 68.6268 29.4498 
531 2 56.8916 70.2886 31.7999 
532 2 55.4525 67.7958 31.7999 
533 2 58.3308 66.134 29.4498 
534 2 59.77 68.6268 29.4498 
535 2 59.77 70.2886 31.7999 
536 2 58.3308 67.7958 31.7999 
537 2 61.2091 66.134 29.4498 
538 2 62.6483 68.6268 29.4498 
539 2 62.6483 70.2886 31.7999 
540 2 61.2091 67.7958 31.7999 
541 2 64.0875 66.134 29.4498 
542 2 65.5266 68.6268 29.4498 
543 2 65.5266 70.2886 31.7999 
544 2 64.0875 67.7958 31.7999 
545 2 18.0342 71.1195 29.4498 
546 2 19.4734 73.6122 29.4498 
547 2 19.4734 75.274 31.7999 
548 2 18.0342 72.7813 31.7999 
549 2 20.9125 71.1195 29.4498 
550 2 22.3517 73.6122 29.4498 
551 2 22.3517 75.274 31.7999 
552 2 20.9125 72.7813 31.7999 
553 2 23.7909 71.1195 29.4498 
554 2 25.23 73.6122 29.4498 
555 2 25.23 75.274 31.7999 
556 2 23.7909 72.7813 31.7999 
557 2 26.6692 71.1195 29.4498 
558 2 28.1084 73.6122 29.4498 
559 2 28.1084 75.274 31.7999 
560 2 26.6692 72.7813 31.7999 
561 2 29.5475 71.1195 29.4498 
562 2 30.9867 73.6122 29.4498 
563 2 30.9867 75.274 31.7999 
564 2 29.5475 72.7813 31.7999 
565 2 32.4259 71.1195 29.4498 
566 2 33.865 73.6122 29.4498 
567 2 33.865 75.274 31.7999 
568 2 32.4259 72.7813 31.7999 
569 2 35.3042 71.1195 29.4498 
570 2 36.7433 73.6122 29.4498 
571 2 36.7433 75.274 31.7999 
572 2 35.3042 72.7813 31.7999 
573 2 38.1825 71.1195 29.4498 
574 2 39.6217 73.6122 29.4498 
575 2 39.6217 75.274 31.7999 
576 2 38.1825 72.7813 31.7999 
577 2 41.0608 71.1195 29.4498 
578 2 42.5 73.6122 29.4498 
579 2 42.5 75.274 31.7999 
580 2 41.0608 72.7813 31.7999 
581 2 43.9392 71.1195 29.4498 
582 2 45.3783 73.6122 29.4498 
583 2 45.3783 75.274 31.7999 
584 2 43.9392 72.7813 31.7999 
585 2 46.8175 71.1195 29.4498 
586 2 48.2567 73.6122 29.4498 
587 2 48.2567 75.274 31.7999 
588 2 46.8175 72.7813 31.7999 
589 2 49.6958 71.1195 29.4498 
590 2 51.135 73.6122 29.4498 
591 2 51.135 75.274 31.7999 
592 2 49.6958 72.7813 31.7999 
593 2 52.5741 71.1195 29.4498 
594 2 54.0133 73.6122 29.4498 
595 2 54.0133 75.274 31.7999 
596 2 52.5741 72.7813 31.7999 
597 2 55.4525 71.1195 29.4498 
598 2 56.8916 73.6122 29.4498 
599 2 56.8916 75.274 31.7999 
600 2 55.4525 72.7813 31.7999 
601 2 58.3308 71.1195 29.4498 
602 2 59.77 73.6122 29.4498 
603 2 59.77 75.274 31.7999 
604 2 58.3308 72.7813 31.7999 
605 2 61.2091 71.1195 29.4498 
606 2 62.6483 73.6122 29.4498 
607 2 62.6483 75.274 31.7999 
608 2 61.2091 72.7813 31.7999 
609 2 64.0875 71.1195 29.4498 
610 2 65.5266 73.6122 29.4498 
611 2 65.5266 75.274 31.7999 
612 2 64.0875 72.7813 31.7999 
613 2 18.0342 76.1049 29.4498 
614 2 19.4734 78.5976 29.4498 
615 2 19.4734 80.2594 31.7999 
616 2 18.0342 77.7667 31.7999 
617 2 20.9125 76.1049 29.4498 
618 2 22.3517 78.5976 29.4498 
619 2 22.3517 80.2594 31.7999 
620 2 20.9125 77.7667 31.7999 
621 2 23.7909 76.1049 29.4498 
622 2 25.23 78.5976 29.4498 
623 2 25.23 80.2594 31.7999 
624 2 23.7909 77.7667 31.7999 
625 2 26.6692 76.1049 29.4498 
626 2 28.1084 78.5976 29.4498 
627 2 28.1084 80.2594 31.7999 
628 2 26.6692 77.7667 31.7999 
629 2 29.5475 76.1049 29.4498 
630 2 30.9867 78.5976 29.4498 
631 2 30.9867 80.2594 31.7999 
632 2 29.5475 77.7667 31.7999 
633 2 32.4259 76.1049 29.4498 
634 2 33.865 78.5976 29.4498 
635 2 33.865 80.2594 31.7999 
636 2 32.4259 77.7667 31.7999 
637 2 35.3042 76.1049 29.4498 
638 2 36.7433 78.5976 29.4498 
639 2 36.7433 80.2594 31.7999 
640 2 35.3042 77.7667 31.7999 
641 2 38.1825 76.1049 29.4498 
642 2 39.6217 78.5976 29.4498 
643 2 39.6217 80.2594 31.7999 
644 2 38.1825 77.7667 31.7999 
645 2 41.0608 76.1049 29.4498 
646 2 42.5 78.5976 29.4498 
647 2 42.5 80.2594 31.7999 
648 2 41.0608 77.7667 31.7999 
649 2 43.9392 76.1049 29.4498 
650 2 45.3783 78.5976 29.4498 
651 2 45.3783 80.2594 31.7999 
652 2 43.9392 77.7667 31.7999 
653 2 46.8175 76.1049 29.4498 
654 2 48.2567 78.5976 29.4498 
655 2 48.2567 80.2594 31.7999 
656 2 46.8175 77.7667 31.7999 
657 2 49.6958 76.1049 29.4498 
658 2 51.135 78.5976 29.4498 
659 2 51.135 80.2594 31.7999 
660 2 49.6958 77.7667 31.7999 
661 2 52.5741 76.1049 29.4498 
662 2 54.0133 78.5976 29.4498 
663 2 54.0133 80.2594 31.7999 
664 2 52.5741 77.7667 31.7999 
665 2 55.4525 76.1049 29.4498 
666 2 56.8916 78.5976 29.4498 
667 2 56.8916 80.2594 31.7999 
668 2 55.4525 77.7667 31.7999 
669 2 58.3308 76.1049 29.4498 
670 2 59.77 78.5976 29.4498 
671 2 59.77 80.2594 31.7999 
672 2 58.3308 77.7667 31.7999 
673 2 61.2091 76.1049 29.4498 
674 2 62.6483 78.5976 29.4498 
675 2 62.6483 80.2594 31.7999 
676 2 61.2091 77.7667 31.7999 
677 2 64.0875 76.1049 29.4498 
678 2 65.5266 78.5976 29.4498 
679 2 65.5266 80.2594 31.7999 
680 2 64.0875 77.7667 31.7999 
681 2 18.0342 81.0903 29.4498 
682 2 19.4734 83.583 29.4498 
683 2 19.4734 85.2448 31.7999 
684 2 18.0342 82.7521 31.7999 
685 2 20.9125 81.0903 29.4498 
686 2 22.3517 83.583 29.4498 
687 2 22.3517 85.2448 31.7999 
688 2 20.9125 82.7521 31.7999 
689 2 23.7909 81.0903 29.4498 
690 2 25.23 83.583 29.4498 
691 2 25.23 85.2448 31.7999 
692 2 23.7909 82.7521 31.7999 
693 2 26.6692 81.0903 29.4498 
694 2 28.1084 83.583 29.4498 
695 2 28.1084 85.2448 31.7999 
696 2 26.6692 82.7521 31.7999 
697 2 29.5475 81.0903 29.4498 
698 2 30.9867 83.583 29.4498 
699 2 30.9867 85.2448 31.7999 
700 2 29.5475 82.7521 31.7999 
701 2 32.4259 81.0903 29.4498 
702 2 33.865 83.583 29.4498 
703 2 33.865 85.2448 31.7999 
704 2 32.4259 82.7521 31.7999 
705 2 35.3042 81.0903 29.4498 
706 2 36.7433 83.583 29.4498 
707 2 36.7433 85.2448 31.7999 
708 2 35.3042 82.7521 31.7999 
709 2 38.1825 81.0903 29.4498 
710 2 39.6217 83.583 29.4498 
711 2 39.6217 85.2448 31.7999 
712 2 38.1825 82.7521 31.7999 
713 2 41.0608 81.0903 29.4498 
714 2 42.5 83.583 29.4498 
715 2 42.5 85.2448 31.7999 
716 2 41.0608 82.7521 31.7999 
717 2 43.9392 81.0903 29.4498 
718 2 45.3783 83.583 29.4498 
719 2 45.3783 85.2448 31.7999 
720 2 43.9392 82.7521 31.7999 
721 2 46.8175 81.0903 29.4498 
722 2 48.2567 83.583 29.4498 
723 2 48.2567 85.2448 31.7999 
724 2 46.8175 82.7521 31.7999 
725 2 49.6958 81.0903 29.4498 
726 2 51.135 83.583 29.4498 
727 2 51.135 85.2448 31.7999 
728 2 49.6958 82.7521 31.7999 
729 2 52.5741 81.0903 29.4498 
730 2 54.0133 83.583 29.4498 
731 2 54.0133 85.2448 31.7999 
732 2 52.5741 82.7521 31.7999 
733 2 55.4525 81.0903 29.4498 
734 2 56.8916 83.583 29.4498 
735 2 56.8916 85.2448 31.7999 
736 2 55.4525 82.7521 31.7999 
737 2 58.3308 81.0903 29.4498 
738 2 59.77 83.583 29.4498 
739 2 59.77 85.2448 31.7999 
740 2 58.3308 82.7521 31.7999 
741 2 61.2091 81.0903 29.4498 
742 2 62.6483 83.583 29.4498 
743 2 62.6483 85.2448 31.7999 
744 2 61.2091 82.7521 31.7999 
745 2 64.0875 81.0903 29.4498 
746 2 65.5266 83.583 29.4498 
747 2 65.5266 85.2448 31.7999 
748 2 64.0875 82.7521 31.7999 
749 2 18.0342 86.0757 29.4498 
750 2 19.4734 88.5684 29.4498 
751 2 19.4734 90.2302 31.7999 
752 2 18.0342 87.7375 31.7999 
753 2 20.9125 86.0757 29.4498 
754 2 22.3517 88.5684 29.4498 
755 2 22.3517 90.2302 31.7999 
756 2 20.9125 87.7375 31.7999 
757 2 23.7909 86.0757 29.4498 
758 2 25.23 88.5684 29.4498 
759 2 25.23 90.2302 31.7999 
760 2 23.7909 87.7375 31.7999 
761 2 26.6692 86.0757 29.4498 
762 2 28.1084 88.5684 29.4498 
763 2 28.1084 90.2302 31.7999 
764 2 26.6692 87.7375 31.7999 
765 2 29.5475 86.0757 29.4498 
766 2 30.9867 88.5684 29.4498 
767 2 30.9867 90.2302 31.7999 
768 2 29.5475 87.7375 31.7999 
769 2 32.4259 86.0757 29.4498 
770 2 33.865 88.5684 29.4498 
771 2 33.865 90.2302 31.7999 
772 2 32.4259 87.7375 31.7999 
773 2 35.3042 86.0757 29.4498 
774 2 36.7433 88.5684 29.4498 
775 2 36.7433 90.2302 31.7999 
776 2 35.3042 87.7375 31.7999 
777 2 38.1825 86.0757 29.4498 
778 2 39.6217 88.5684 29.4498 
779 2 39.6217 90.2302 31.7999 
780 2 38.1825 87.7375 31.7999 
781 2 41.0608 86.0757 29.4498 
782 2 42.5 88.5684 29.4498 
783 2 42.5 90.2302 31.7999 
784 2 41.0608 87.7375 31.7999 
785 2 43.9392 86.0757 29.4498 
786 2 45.3783 88.5684 29.4498 
787 2 45.3783 90.2302 31.7999 
788 2 43.9392 87.7375 31.7999 
789 2 46.8175 86.0757 29.4498 
790 2 48.2567 88.5684 29.4498 
791 2 48.2567 90.2302 31.7999 
792 2 46.8175 87.7375 31.7999 
793 2 49.6958 86.0757 29.4498 
794 2 51.135 88.5684 29.4498 
795 2 51.135 90.2302 31.7999 
796 2 49.6958 87.7375 31.7999 
797 2 52.5741 86.0757 29.4498 
798 2 54.0133 88.5684 29.4498 
799 2 54.0133 90.2302 31.7999 
800 2 52.5741 87.7375 31.7999 
801 2 55.4525 86.0757 29.4498 
802 2 56.8916 88.5684 29.4498 
803 2 56.8916 90.2302 31.7999 
804 2 55.4525 87.7375 31.7999 
805 2 58.3308 86.0757 29.4498 
806 2 59.77 88.5684 29.4498 
807 2 59.77 90.2302 31.7999 
808 2 58.3308 87.7375 31.7999 
809 2 61.2091 86.0757 29.4498 
810 2 62.6483 88.5684 29.4498 
811 2 62.6483 90.2302 31.7999 
812 2 61.2091 87.7375 31.7999 
813 2 64.0875 86.0757 29.4498 
814 2 65.5266 88.5684 29.4498 
815 2 65.5266 90.2302 31.7999 
816 2 64.0875 87.7375 31.7999 
817 2 18.0342 91.0611 29.4498 
818 2 19.4734 93.5538 29.4498 
819 2 19.4734 95.2156 31.7999 
820 2 18.0342 92.7229 31.7999 
821 2 20.9125 91.0611 29.4498 
822 2 22.3517 93.5538 29.4498 
823 2 22.3517 95.2156 31.7999 
824 2 20.9125 92.7229 31.7999 
825 2 23.7909 91.0611 29.4498 
826 2 25.23 93.5538 29.4498 
827 2 25.23 95.2156 31.7999 
828 2 23.7909 92.7229 31.7999 
829 2 26.6692 91.0611 29.4498 
830 2 28.1084 93.5538 29.4498 
831 2 28.1084 95.2156 31.7999 
832 2 26.6692 92.7229 31.7999 
833 2 29.5475 91.0611 29.4498 
834 2 30.9867 93.5538 29.4498 
835 2 30.9867 95.2156 31.7999 
836 2 29.5475 92.7229 31.7999 
837 2 32.4259 91.0611 29.4498 
838 2 33.865 93.5538 29.4498 
839 2 33.865 95.2156 31.7999 
840 2 32.4259 92.7229 31.7999 
841 2 35.3042 91.0611 29.4498 
842 2 36.7433 93.5538 29.4498 
843 2 36.7433 95.2156 31.7999 
844 2 35.3042 92.7229 31.7999 
845 2 38.1825 91.0611 29.4498 
846 2 39.6217 93.5538 29.4498 
847 2 39.6217 95.2156 31.7999 
848 2 38.1825 92.7229 31.7999 
849 2 41.0608 91.0611 29.4498 
850 2 42.5 93.5538 29.4498 
851 2 42.5 95.2156 31.7999 
852 2 41.0608 92.7229 31.7999 
853 2 43.9392 91.0611 29.4498 
854 2 45.3783 93.5538 29.4498 
855 2 45.3783 95.2156 31.7999 
856 2 43.9392 92.7229 31.7999 
857 2 46.8175 91.0611 29.4498 
858 2 48.2567 93.5538 29.4498 
859 2 48.2567 95.2156 31.7999 
860 2 46.8175 92.7229 31.7999 
861 2 49.6958 91.0611 29.4498 
862 2 51.135 93.5538 29.4498 
863 2 51.135 95.2156 31.7999 
864 2 49.6958 92.7229 31.7999 
865 2 52.5741 91.0611 29.4498 
866 2 54.0133 93.5538 29.4498 
867 2 54.0133 95.2156 31.7999 
868 2 52.5741 92.7229 31.7999 
869 2 55.4525 91.0611 29.4498 
870 2 56.8916 93.5538 29.4498 
871 2 56.8916 95.2156 31.7999 
872 2 55.4525 92.7229 31.7999 
873 2 58.3308 91.0611 29.4498 
874 2 59.77 93.5538 29.4498 
875 2 59.77 95.2156 31.7999 
876 2 58.3308 92.7229 31.7999 
877 2 61.2091 91.0611 29.4498 
878 2 62.6483 93.5538 29.4498 
879 2 62.6483 95.2156 31.7999 
880 2 61.2091 92.7229 31.7999 
881 2 64.0875 91.0611 29.4498 
882 2 65.5266 93.5538 29.4498 
883 2 65.5266 95.2156 31.7999 
884 2 64.0875 92.7229 31.7999 
885 2 18.0342 96.0465 29.4498 
886 2 19.4734 98.5392 29.4498 
887 2 19.4734 100.201 31.7999 
888 2 18.0342 97.7083 31.7999 
889 2 20.9125 96.0465 29.4498 
890 2 22.3517 98.5392 29.4498 
891 2 22.3517 100.201 31.7999 
892 2 20.9125 97.7083 31.7999 
893 2 23.7909 96.0465 29.4498 
894 2 25.23 98.5392 29.4498 
895 2 25.23 100.201 31.7999 
896 2 23.7909 97.7083 31.7999 
897 2 26.6692 96.0465 29.4498 
898 2 28.1084 98.5392 29.4498 
899 2 28.1084 100.201 31.7999 
900 2 26.6692 97.7083 31.7999 
901 2 29.5475 96.0465 29.4498 
902 2 30.9867 98.5392 29.4498 
903 2 30.9867 100.201 31.7999 
904 2 29.5475 97.7083 31.7999 
905 2 32.4259 96.0465 29.4498 
906 2 33.865 98.5392 29.4498 
907 2 33.865 100.201 31.7999 
908 2 32.4259 97.7083 31.7999 
909 2 35.3042 96.0465 29.4498 
910 2 36.7433 98.5392 29.4498 
911 2 36.7433 100.201 31.7999 
912 2 35.3042 97.7083 31.7999 
913 2 38.1825 96.0465 29.4498 
914 2 39.6217 98.5392 29.4498 
915 2 39.6217 100.201 31.7999 
916 2 38.1825 97.7083 31.7999 
917 2 41.0608 96.0465 29.4498 
918 2 42.5 98.5392 29.4498 
919 2 42.5 100.201 31.7999 
920 2 41.0608 97.7083 31.7999 
921 2 43.9392 96.0465 29.4498 
922 2 45.3783 98.5392 29.4498 
923 2 45.3783 100.201 31.7999 
924 2 43.9392 97.7083 31.7999 
925 2 46.8175 96.0465 29.4498 
926 2 48.2567 98.5392 29.4498 
927 2 48.2567 100.201 31.7999 
928 2 46.8175 97.7083 31.7999 
929 2 49.6958 96.0465 29.4498 
930 2 51.135 98.5392 29.4498 
931 2 51.135 100.201 31.7999 
932 2 49.6958 97.7083 31.7999 
933 2 52.5741 96.0465 29.4498 
934 2 54.0133 98.5392 29.4498 
935 2 54.0133 100.201 31.7999 
936 2 52.5741 97.7083 31.7999 
937 2 55.4525 96.0465 29.4498 
938 2 56.8916 98.5392 29.4498 
939 2 56.8916 100.201 31.7999 
940 2 55.4525 97.7083 31.7999 
941 2 58.3308 96.0465 29.4498 
942 2 59.77 98.5392 29.4498 
943 2 59.77 100.201 31.7999 
944 2 58.3308 97.7083 31.7999 
945 2 61.2091 96.0465 29.4498 
946 2 62.6483 98.5392 29.4498 
947 2 62.6483 100.201 31.7999 
948 2 61.2091 97.7083 31.7999 
949 2 64.0875 96.0465 29.4498 
950 2 65.5266 98.5392 29.4498 
951 2 65.5266 100.201 31.7999 
952 2 64.0875 97.7083 31.7999 
953 2 18.0342 101.032 29.4498 
954 2 19.4734 103.525 29.4498 
955 2 19.4734 105.186 31.7999 
956 2 18.0342 102.694 31.7999 
957 2 20.9125 101.032 29.4498 
958 2 22.3517 103.525 29.4498 
959 2 22.3517 105.186 31.7999 
960 2 20.9125 102.694 31.7999 
961 2 23.7909 101.032 29.4498 
962 2 25.23 103.525 29.4498 
963 2 25.23 105.186 31.7999 
964 2 23.7909 102.694 31.7999 
965 2 26.6692 101.032 29.4498 
966 2 28.1084 103.525 29.4498 
967 2 28.1084 105.186 31.7999 
968 2 26.6692 102.694 31.7999 
969 2 29.5475 101.032 29.4498 
970 2 30.9867 103.525 29.4498 
971 2 30.9867 105.186 31.7999 
972 2 29.5475 102.694 31.7999 
973 2 32.4259 101.032 29.4498 
974 2 33.865 103.525 29.4498 
975 2 33.865 105.186 31.7999 