ITEM: TIMESTEP
22
ITEM: NUMBER OF ATOMS
19652
ITEM: BOX BOUNDS pp pp pp
4.2437498781240253e+00 8.0756250121875865e+01
4.2437498781240253e+00 8.0756250121875865e+01
4.2437498781240253e+00 8.0756250121875865e+01
ITEM: ATOMS id type xu yu zu 
1 1 4.24375 4.24375 4.24375 
2 1 6.49412 6.49412 4.24375 
3 1 6.49412 4.24375 6.49412 
4 1 4.24375 6.49412 6.49412 
5 1 8.74449 4.24375 4.24375 
6 1 10.9949 6.49412 4.24375 
7 1 10.9949 4.24375 6.49412 
8 1 8.74449 6.49412 6.49412 
9 1 13.2452 4.24375 4.24375 
10 1 15.4956 6.49412 4.24375 
11 1 15.4956 4.24375 6.49412 
12 1 13.2452 6.49412 6.49412 
13 1 17.746 4.24375 4.24375 
14 1 19.9963 6.49412 4.24375 
15 1 19.9963 4.24375 6.49412 
16 1 17.746 6.49412 6.49412 
17 1 22.2467 4.24375 4.24375 
18 1 24.4971 6.49412 4.24375 
19 1 24.4971 4.24375 6.49412 
20 1 22.2467 6.49412 6.49412 
21 1 26.7474 4.24375 4.24375 
22 1 28.9978 6.49412 4.24375 
23 1 28.9978 4.24375 6.49412 
24 1 26.7474 6.49412 6.49412 
25 1 31.2482 4.24375 4.24375 
26 1 33.4985 6.49412 4.24375 
27 1 33.4985 4.24375 6.49412 
28 1 31.2482 6.49412 6.49412 
29 1 35.7489 4.24375 4.24375 
30 1 37.9993 6.49412 4.24375 
31 1 37.9993 4.24375 6.49412 
32 1 35.7489 6.49412 6.49412 
33 1 40.2496 4.24375 4.24375 
34 1 42.5 6.49412 4.24375 
35 1 42.5 4.24375 6.49412 
36 1 40.2496 6.49412 6.49412 
37 1 44.7504 4.24375 4.24375 
38 1 47.0007 6.49412 4.24375 
39 1 47.0007 4.24375 6.49412 
40 1 44.7504 6.49412 6.49412 
41 1 49.2511 4.24375 4.24375 
42 1 51.5015 6.49412 4.24375 
43 1 51.5015 4.24375 6.49412 
44 1 49.2511 6.49412 6.49412 
45 1 53.7518 4.24375 4.24375 
46 1 56.0022 6.49412 4.24375 
47 1 56.0022 4.24375 6.49412 
48 1 53.7518 6.49412 6.49412 
49 1 58.2526 4.24375 4.24375 
50 1 60.5029 6.49412 4.24375 
51 1 60.5029 4.24375 6.49412 
52 1 58.2526 6.49412 6.49412 
53 1 62.7533 4.24375 4.24375 
54 1 65.0037 6.49412 4.24375 
55 1 65.0037 4.24375 6.49412 
56 1 62.7533 6.49412 6.49412 
57 1 67.254 4.24375 4.24375 
58 1 69.5044 6.49412 4.24375 
59 1 69.5044 4.24375 6.49412 
60 1 67.254 6.49412 6.49412 
61 1 71.7548 4.24375 4.24375 
62 1 74.0051 6.49412 4.24375 
63 1 74.0051 4.24375 6.49412 
64 1 71.7548 6.49412 6.49412 
65 1 76.2555 4.24375 4.24375 
66 1 78.5059 6.49412 4.24375 
67 1 78.5059 4.24375 6.49412 
68 1 76.2555 6.49412 6.49412 
69 1 4.24375 8.74449 4.24375 
70 1 6.49412 10.9949 4.24375 
71 1 6.49412 8.74449 6.49412 
72 1 4.24375 10.9949 6.49412 
73 1 8.74449 8.74449 4.24375 
74 1 10.9949 10.9949 4.24375 
75 1 10.9949 8.74449 6.49412 
76 1 8.74449 10.9949 6.49412 
77 1 13.2452 8.74449 4.24375 
78 1 15.4956 10.9949 4.24375 
79 1 15.4956 8.74449 6.49412 
80 1 13.2452 10.9949 6.49412 
81 1 17.746 8.74449 4.24375 
82 1 19.9963 10.9949 4.24375 
83 1 19.9963 8.74449 6.49412 
84 1 17.746 10.9949 6.49412 
85 1 22.2467 8.74449 4.24375 
86 1 24.4971 10.9949 4.24375 
87 1 24.4971 8.74449 6.49412 
88 1 22.2467 10.9949 6.49412 
89 1 26.7474 8.74449 4.24375 
90 1 28.9978 10.9949 4.24375 
91 1 28.9978 8.74449 6.49412 
92 1 26.7474 10.9949 6.49412 
93 1 31.2482 8.74449 4.24375 
94 1 33.4985 10.9949 4.24375 
95 1 33.4985 8.74449 6.49412 
96 1 31.2482 10.9949 6.49412 
97 1 35.7489 8.74449 4.24375 
98 1 37.9993 10.9949 4.24375 
99 1 37.9993 8.74449 6.49412 
100 1 35.7489 10.9949 6.49412 
101 1 40.2496 8.74449 4.24375 
102 1 42.5 10.9949 4.24375 
103 1 42.5 8.74449 6.49412 
104 1 40.2496 10.9949 6.49412 
105 1 44.7504 8.74449 4.24375 
106 1 47.0007 10.9949 4.24375 
107 1 47.0007 8.74449 6.49412 
108 1 44.7504 10.9949 6.49412 
109 1 49.2511 8.74449 4.24375 
110 1 51.5015 10.9949 4.24375 
111 1 51.5015 8.74449 6.49412 
112 1 49.2511 10.9949 6.49412 
113 1 53.7518 8.74449 4.24375 
114 1 56.0022 10.9949 4.24375 
115 1 56.0022 8.74449 6.49412 
116 1 53.7518 10.9949 6.49412 
117 1 58.2526 8.74449 4.24375 
118 1 60.5029 10.9949 4.24375 
119 1 60.5029 8.74449 6.49412 
120 1 58.2526 10.9949 6.49412 
121 1 62.7533 8.74449 4.24375 
122 1 65.0037 10.9949 4.24375 
123 1 65.0037 8.74449 6.49412 
124 1 62.7533 10.9949 6.49412 
125 1 67.254 8.74449 4.24375 
126 1 69.5044 10.9949 4.24375 
127 1 69.5044 8.74449 6.49412 
128 1 67.254 10.9949 6.49412 
129 1 71.7548 8.74449 4.24375 
130 1 74.0051 10.9949 4.24375 
131 1 74.0051 8.74449 6.49412 
132 1 71.7548 10.9949 6.49412 
133 1 76.2555 8.74449 4.24375 
134 1 78.5059 10.9949 4.24375 
135 1 78.5059 8.74449 6.49412 
136 1 76.2555 10.9949 6.49412 
137 1 4.24375 13.2452 4.24375 
138 1 6.49412 15.4956 4.24375 
139 1 6.49412 13.2452 6.49412 
140 1 4.24375 15.4956 6.49412 
141 1 8.74449 13.2452 4.24375 
142 1 10.9949 15.4956 4.24375 
143 1 10.9949 13.2452 6.49412 
144 1 8.74449 15.4956 6.49412 
145 1 13.2452 13.2452 4.24375 
146 1 15.4956 15.4956 4.24375 
147 1 15.4956 13.2452 6.49412 
148 1 13.2452 15.4956 6.49412 
149 1 17.746 13.2452 4.24375 
150 1 19.9963 15.4956 4.24375 
151 1 19.9963 13.2452 6.49412 
152 1 17.746 15.4956 6.49412 
153 1 22.2467 13.2452 4.24375 
154 1 24.4971 15.4956 4.24375 
155 1 24.4971 13.2452 6.49412 
156 1 22.2467 15.4956 6.49412 
157 1 26.7474 13.2452 4.24375 
158 1 28.9978 15.4956 4.24375 
159 1 28.9978 13.2452 6.49412 
160 1 26.7474 15.4956 6.49412 
161 1 31.2482 13.2452 4.24375 
162 1 33.4985 15.4956 4.24375 
163 1 33.4985 13.2452 6.49412 
164 1 31.2482 15.4956 6.49412 
165 1 35.7489 13.2452 4.24375 
166 1 37.9993 15.4956 4.24375 
167 1 37.9993 13.2452 6.49412 
168 1 35.7489 15.4956 6.49412 
169 1 40.2496 13.2452 4.24375 
170 1 42.5 15.4956 4.24375 
171 1 42.5 13.2452 6.49412 
172 1 40.2496 15.4956 6.49412 
173 1 44.7504 13.2452 4.24375 
174 1 47.0007 15.4956 4.24375 
175 1 47.0007 13.2452 6.49412 
176 1 44.7504 15.4956 6.49412 
177 1 49.2511 13.2452 4.24375 
178 1 51.5015 15.4956 4.24375 
179 1 51.5015 13.2452 6.49412 
180 1 49.2511 15.4956 6.49412 
181 1 53.7518 13.2452 4.24375 
182 1 56.0022 15.4956 4.24375 
183 1 56.0022 13.2452 6.49412 
184 1 53.7518 15.4956 6.49412 
185 1 58.2526 13.2452 4.24375 
186 1 60.5029 15.4956 4.24375 
187 1 60.5029 13.2452 6.49412 
188 1 58.2526 15.4956 6.49412 
189 1 62.7533 13.2452 4.24375 
190 1 65.0037 15.4956 4.24375 
191 1 65.0037 13.2452 6.49412 
192 1 62.7533 15.4956 6.49412 
193 1 67.254 13.2452 4.24375 
194 1 69.5044 15.4956 4.24375 
195 1 69.5044 13.2452 6.49412 
196 1 67.254 15.4956 6.49412 
197 1 71.7548 13.2452 4.24375 
198 1 74.0051 15.4956 4.24375 
199 1 74.0051 13.2452 6.49412 
200 1 71.7548 15.4956 6.49412 
201 1 76.2555 13.2452 4.24375 
202 1 78.5059 15.4956 4.24375 
203 1 78.5059 13.2452 6.49412 
204 1 76.2555 15.4956 6.49412 
205 1 4.24375 17.746 4.24375 
206 1 6.49412 19.9963 4.24375 
207 1 6.49412 17.746 6.49412 
208 1 4.24375 19.9963 6.49412 
209 1 8.74449 17.746 4.24375 
210 1 10.9949 19.9963 4.24375 
211 1 10.9949 17.746 6.49412 
212 1 8.74449 19.9963 6.49412 
213 1 13.2452 17.746 4.24375 
214 1 15.4956 19.9963 4.24375 
215 1 15.4956 17.746 6.49412 
216 1 13.2452 19.9963 6.49412 
217 1 17.746 17.746 4.24375 
218 1 19.9963 19.9963 4.24375 
219 1 19.9963 17.746 6.49412 
220 1 17.746 19.9963 6.49412 
221 1 22.2467 17.746 4.24375 
222 1 24.4971 19.9963 4.24375 
223 1 24.4971 17.746 6.49412 
224 1 22.2467 19.9963 6.49412 
225 1 26.7474 17.746 4.24375 
226 1 28.9978 19.9963 4.24375 
227 1 28.9978 17.746 6.49412 
228 1 26.7474 19.9963 6.49412 
229 1 31.2482 17.746 4.24375 
230 1 33.4985 19.9963 4.24375 
231 1 33.4985 17.746 6.49412 
232 1 31.2482 19.9963 6.49412 
233 1 35.7489 17.746 4.24375 
234 1 37.9993 19.9963 4.24375 
235 1 37.9993 17.746 6.49412 
236 1 35.7489 19.9963 6.49412 
237 1 40.2496 17.746 4.24375 
238 1 42.5 19.9963 4.24375 
239 1 42.5 17.746 6.49412 
240 1 40.2496 19.9963 6.49412 
241 1 44.7504 17.746 4.24375 
242 1 47.0007 19.9963 4.24375 
243 1 47.0007 17.746 6.49412 
244 1 44.7504 19.9963 6.49412 
245 1 49.2511 17.746 4.24375 
246 1 51.5015 19.9963 4.24375 
247 1 51.5015 17.746 6.49412 
248 1 49.2511 19.9963 6.49412 
249 1 53.7518 17.746 4.24375 
250 1 56.0022 19.9963 4.24375 
251 1 56.0022 17.746 6.49412 
252 1 53.7518 19.9963 6.49412 
253 1 58.2526 17.746 4.24375 
254 1 60.5029 19.9963 4.24375 
255 1 60.5029 17.746 6.49412 
256 1 58.2526 19.9963 6.49412 
257 1 62.7533 17.746 4.24375 
258 1 65.0037 19.9963 4.24375 
259 1 65.0037 17.746 6.49412 
260 1 62.7533 19.9963 6.49412 
261 1 67.254 17.746 4.24375 
262 1 69.5044 19.9963 4.24375 
263 1 69.5044 17.746 6.49412 
264 1 67.254 19.9963 6.49412 
265 1 71.7548 17.746 4.24375 
266 1 74.0051 19.9963 4.24375 
267 1 74.0051 17.746 6.49412 
268 1 71.7548 19.9963 6.49412 
269 1 76.2555 17.746 4.24375 
270 1 78.5059 19.9963 4.24375 
271 1 78.5059 17.746 6.49412 
272 1 76.2555 19.9963 6.49412 
273 1 4.24375 22.2467 4.24375 
274 1 6.49412 24.4971 4.24375 
275 1 6.49412 22.2467 6.49412 
276 1 4.24375 24.4971 6.49412 
277 1 8.74449 22.2467 4.24375 
278 1 10.9949 24.4971 4.24375 
279 1 10.9949 22.2467 6.49412 
280 1 8.74449 24.4971 6.49412 
281 1 13.2452 22.2467 4.24375 
282 1 15.4956 24.4971 4.24375 
283 1 15.4956 22.2467 6.49412 
284 1 13.2452 24.4971 6.49412 
285 1 17.746 22.2467 4.24375 
286 1 19.9963 24.4971 4.24375 
287 1 19.9963 22.2467 6.49412 
288 1 17.746 24.4971 6.49412 
289 1 22.2467 22.2467 4.24375 
290 1 24.4971 24.4971 4.24375 
291 1 24.4971 22.2467 6.49412 
292 1 22.2467 24.4971 6.49412 
293 1 26.7474 22.2467 4.24375 
294 1 28.9978 24.4971 4.24375 
295 1 28.9978 22.2467 6.49412 
296 1 26.7474 24.4971 6.49412 
297 1 31.2482 22.2467 4.24375 
298 1 33.4985 24.4971 4.24375 
299 1 33.4985 22.2467 6.49412 
300 1 31.2482 24.4971 6.49412 
301 1 35.7489 22.2467 4.24375 
302 1 37.9993 24.4971 4.24375 
303 1 37.9993 22.2467 6.49412 
304 1 35.7489 24.4971 6.49412 
305 1 40.2496 22.2467 4.24375 
306 1 42.5 24.4971 4.24375 
307 1 42.5 22.2467 6.49412 
308 1 40.2496 24.4971 6.49412 
309 1 44.7504 22.2467 4.24375 
310 1 47.0007 24.4971 4.24375 
311 1 47.0007 22.2467 6.49412 
312 1 44.7504 24.4971 6.49412 
313 1 49.2511 22.2467 4.24375 
314 1 51.5015 24.4971 4.24375 
315 1 51.5015 22.2467 6.49412 
316 1 49.2511 24.4971 6.49412 
317 1 53.7518 22.2467 4.24375 
318 1 56.0022 24.4971 4.24375 
319 1 56.0022 22.2467 6.49412 
320 1 53.7518 24.4971 6.49412 
321 1 58.2526 22.2467 4.24375 
322 1 60.5029 24.4971 4.24375 
323 1 60.5029 22.2467 6.49412 
324 1 58.2526 24.4971 6.49412 
325 1 62.7533 22.2467 4.24375 
326 1 65.0037 24.4971 4.24375 
327 1 65.0037 22.2467 6.49412 
328 1 62.7533 24.4971 6.49412 
329 1 67.254 22.2467 4.24375 
330 1 69.5044 24.4971 4.24375 
331 1 69.5044 22.2467 6.49412 
332 1 67.254 24.4971 6.49412 
333 1 71.7548 22.2467 4.24375 
334 1 74.0051 24.4971 4.24375 
335 1 74.0051 22.2467 6.49412 
336 1 71.7548 24.4971 6.49412 
337 1 76.2555 22.2467 4.24375 
338 1 78.5059 24.4971 4.24375 
339 1 78.5059 22.2467 6.49412 
340 1 76.2555 24.4971 6.49412 
341 1 4.24375 26.7474 4.24375 
342 1 6.49412 28.9978 4.24375 
343 1 6.49412 26.7474 6.49412 
344 1 4.24375 28.9978 6.49412 
345 1 8.74449 26.7474 4.24375 
346 1 10.9949 28.9978 4.24375 
347 1 10.9949 26.7474 6.49412 
348 1 8.74449 28.9978 6.49412 
349 1 13.2452 26.7474 4.24375 
350 1 15.4956 28.9978 4.24375 
351 1 15.4956 26.7474 6.49412 
352 1 13.2452 28.9978 6.49412 
353 1 17.746 26.7474 4.24375 
354 1 19.9963 28.9978 4.24375 
355 1 19.9963 26.7474 6.49412 
356 1 17.746 28.9978 6.49412 
357 1 22.2467 26.7474 4.24375 
358 1 24.4971 28.9978 4.24375 
359 1 24.4971 26.7474 6.49412 
360 1 22.2467 28.9978 6.49412 
361 1 26.7474 26.7474 4.24375 
362 1 28.9978 28.9978 4.24375 
363 1 28.9978 26.7474 6.49412 
364 1 26.7474 28.9978 6.49412 
365 1 31.2482 26.7474 4.24375 
366 1 33.4985 28.9978 4.24375 
367 1 33.4985 26.7474 6.49412 
368 1 31.2482 28.9978 6.49412 
369 1 35.7489 26.7474 4.24375 
370 1 37.9993 28.9978 4.24375 
371 1 37.9993 26.7474 6.49412 
372 1 35.7489 28.9978 6.49412 
373 1 40.2496 26.7474 4.24375 
374 1 42.5 28.9978 4.24375 
375 1 42.5 26.7474 6.49412 
376 1 40.2496 28.9978 6.49412 
377 1 44.7504 26.7474 4.24375 
378 1 47.0007 28.9978 4.24375 
379 1 47.0007 26.7474 6.49412 
380 1 44.7504 28.9978 6.49412 
381 1 49.2511 26.7474 4.24375 
382 1 51.5015 28.9978 4.24375 
383 1 51.5015 26.7474 6.49412 
384 1 49.2511 28.9978 6.49412 
385 1 53.7518 26.7474 4.24375 
386 1 56.0022 28.9978 4.24375 
387 1 56.0022 26.7474 6.49412 
388 1 53.7518 28.9978 6.49412 
389 1 58.2526 26.7474 4.24375 
390 1 60.5029 28.9978 4.24375 
391 1 60.5029 26.7474 6.49412 
392 1 58.2526 28.9978 6.49412 
393 1 62.7533 26.7474 4.24375 
394 1 65.0037 28.9978 4.24375 
395 1 65.0037 26.7474 6.49412 
396 1 62.7533 28.9978 6.49412 
397 1 67.254 26.7474 4.24375 
398 1 69.5044 28.9978 4.24375 
399 1 69.5044 26.7474 6.49412 
400 1 67.254 28.9978 6.49412 
401 1 71.7548 26.7474 4.24375 
402 1 74.0051 28.9978 4.24375 
403 1 74.0051 26.7474 6.49412 
404 1 71.7548 28.9978 6.49412 
405 1 76.2555 26.7474 4.24375 
406 1 78.5059 28.9978 4.24375 
407 1 78.5059 26.7474 6.49412 
408 1 76.2555 28.9978 6.49412 
409 1 4.24375 31.2482 4.24375 
410 1 6.49412 33.4985 4.24375 
411 1 6.49412 31.2482 6.49412 
412 1 4.24375 33.4985 6.49412 
413 1 8.74449 31.2482 4.24375 
414 1 10.9949 33.4985 4.24375 
415 1 10.9949 31.2482 6.49412 
416 1 8.74449 33.4985 6.49412 
417 1 13.2452 31.2482 4.24375 
418 1 15.4956 33.4985 4.24375 
419 1 15.4956 31.2482 6.49412 
420 1 13.2452 33.4985 6.49412 
421 1 17.746 31.2482 4.24375 
422 1 19.9963 33.4985 4.24375 
423 1 19.9963 31.2482 6.49412 
424 1 17.746 33.4985 6.49412 
425 1 22.2467 31.2482 4.24375 
426 1 24.4971 33.4985 4.24375 
427 1 24.4971 31.2482 6.49412 
428 1 22.2467 33.4985 6.49412 
429 1 26.7474 31.2482 4.24375 
430 1 28.9978 33.4985 4.24375 
431 1 28.9978 31.2482 6.49412 
432 1 26.7474 33.4985 6.49412 
433 1 31.2482 31.2482 4.24375 
434 1 33.4985 33.4985 4.24375 
435 1 33.4985 31.2482 6.49412 
436 1 31.2482 33.4985 6.49412 
437 1 35.7489 31.2482 4.24375 
438 1 37.9993 33.4985 4.24375 
439 1 37.9993 31.2482 6.49412 
440 1 35.7489 33.4985 6.49412 
441 1 40.2496 31.2482 4.24375 
442 1 42.5 33.4985 4.24375 
443 1 42.5 31.2482 6.49412 
444 1 40.2496 33.4985 6.49412 
445 1 44.7504 31.2482 4.24375 
446 1 47.0007 33.4985 4.24375 
447 1 47.0007 31.2482 6.49412 
448 1 44.7504 33.4985 6.49412 
449 1 49.2511 31.2482 4.24375 
450 1 51.5015 33.4985 4.24375 
451 1 51.5015 31.2482 6.49412 
452 1 49.2511 33.4985 6.49412 
453 1 53.7518 31.2482 4.24375 
454 1 56.0022 33.4985 4.24375 
455 1 56.0022 31.2482 6.49412 
456 1 53.7518 33.4985 6.49412 
457 1 58.2526 31.2482 4.24375 
458 1 60.5029 33.4985 4.24375 
459 1 60.5029 31.2482 6.49412 
460 1 58.2526 33.4985 6.49412 
461 1 62.7533 31.2482 4.24375 
462 1 65.0037 33.4985 4.24375 
463 1 65.0037 31.2482 6.49412 
464 1 62.7533 33.4985 6.49412 
465 1 67.254 31.2482 4.24375 
466 1 69.5044 33.4985 4.24375 
467 1 69.5044 31.2482 6.49412 
468 1 67.254 33.4985 6.49412 
469 1 71.7548 31.2482 4.24375 
470 1 74.0051 33.4985 4.24375 
471 1 74.0051 31.2482 6.49412 
472 1 71.7548 33.4985 6.49412 
473 1 76.2555 31.2482 4.24375 
474 1 78.5059 33.4985 4.24375 
475 1 78.5059 31.2482 6.49412 
476 1 76.2555 33.4985 6.49412 
477 1 4.24375 35.7489 4.24375 
478 1 6.49412 37.9993 4.24375 
479 1 6.49412 35.7489 6.49412 
480 1 4.24375 37.9993 6.49412 
481 1 8.74449 35.7489 4.24375 
482 1 10.9949 37.9993 4.24375 
483 1 10.9949 35.7489 6.49412 
484 1 8.74449 37.9993 6.49412 
485 1 13.2452 35.7489 4.24375 
486 1 15.4956 37.9993 4.24375 
487 1 15.4956 35.7489 6.49412 
488 1 13.2452 37.9993 6.49412 
489 1 17.746 35.7489 4.24375 
490 1 19.9963 37.9993 4.24375 
491 1 19.9963 35.7489 6.49412 
492 1 17.746 37.9993 6.49412 
493 1 22.2467 35.7489 4.24375 
494 1 24.4971 37.9993 4.24375 
495 1 24.4971 35.7489 6.49412 
496 1 22.2467 37.9993 6.49412 
497 1 26.7474 35.7489 4.24375 
498 1 28.9978 37.9993 4.24375 
499 1 28.9978 35.7489 6.49412 
500 1 26.7474 37.9993 6.49412 
501 1 31.2482 35.7489 4.24375 
502 1 33.4985 37.9993 4.24375 
503 1 33.4985 35.7489 6.49412 
504 1 31.2482 37.9993 6.49412 
505 1 35.7489 35.7489 4.24375 
506 1 37.9993 37.9993 4.24375 
507 1 37.9993 35.7489 6.49412 
508 1 35.7489 37.9993 6.49412 
509 1 40.2496 35.7489 4.24375 
510 1 42.5 37.9993 4.24375 
511 1 42.5 35.7489 6.49412 
512 1 40.2496 37.9993 6.49412 
513 1 44.7504 35.7489 4.24375 
514 1 47.0007 37.9993 4.24375 
515 1 47.0007 35.7489 6.49412 
516 1 44.7504 37.9993 6.49412 
517 1 49.2511 35.7489 4.24375 
518 1 51.5015 37.9993 4.24375 
519 1 51.5015 35.7489 6.49412 
520 1 49.2511 37.9993 6.49412 
521 1 53.7518 35.7489 4.24375 
522 1 56.0022 37.9993 4.24375 
523 1 56.0022 35.7489 6.49412 
524 1 53.7518 37.9993 6.49412 
525 1 58.2526 35.7489 4.24375 
526 1 60.5029 37.9993 4.24375 
527 1 60.5029 35.7489 6.49412 
528 1 58.2526 37.9993 6.49412 
529 1 62.7533 35.7489 4.24375 
530 1 65.0037 37.9993 4.24375 
531 1 65.0037 35.7489 6.49412 
532 1 62.7533 37.9993 6.49412 
533 1 67.254 35.7489 4.24375 
534 1 69.5044 37.9993 4.24375 
535 1 69.5044 35.7489 6.49412 
536 1 67.254 37.9993 6.49412 
537 1 71.7548 35.7489 4.24375 
538 1 74.0051 37.9993 4.24375 
539 1 74.0051 35.7489 6.49412 
540 1 71.7548 37.9993 6.49412 
541 1 76.2555 35.7489 4.24375 
542 1 78.5059 37.9993 4.24375 
543 1 78.5059 35.7489 6.49412 
544 1 76.2555 37.9993 6.49412 
545 1 4.24375 40.2496 4.24375 
546 1 6.49412 42.5 4.24375 
547 1 6.49412 40.2496 6.49412 
548 1 4.24375 42.5 6.49412 
549 1 8.74449 40.2496 4.24375 
550 1 10.9949 42.5 4.24375 
551 1 10.9949 40.2496 6.49412 
552 1 8.74449 42.5 6.49412 
553 1 13.2452 40.2496 4.24375 
554 1 15.4956 42.5 4.24375 
555 1 15.4956 40.2496 6.49412 
556 1 13.2452 42.5 6.49412 
557 1 17.746 40.2496 4.24375 
558 1 19.9963 42.5 4.24375 
559 1 19.9963 40.2496 6.49412 
560 1 17.746 42.5 6.49412 
561 1 22.2467 40.2496 4.24375 
562 1 24.4971 42.5 4.24375 
563 1 24.4971 40.2496 6.49412 
564 1 22.2467 42.5 6.49412 
565 1 26.7474 40.2496 4.24375 
566 1 28.9978 42.5 4.24375 
567 1 28.9978 40.2496 6.49412 
568 1 26.7474 42.5 6.49412 
569 1 31.2482 40.2496 4.24375 
570 1 33.4985 42.5 4.24375 
571 1 33.4985 40.2496 6.49412 
572 1 31.2482 42.5 6.49412 
573 1 35.7489 40.2496 4.24375 
574 1 37.9993 42.5 4.24375 
575 1 37.9993 40.2496 6.49412 
576 1 35.7489 42.5 6.49412 
577 1 40.2496 40.2496 4.24375 
578 1 42.5 42.5 4.24375 
579 1 42.5 40.2496 6.49412 
580 1 40.2496 42.5 6.49412 
581 1 44.7504 40.2496 4.24375 
582 1 47.0007 42.5 4.24375 
583 1 47.0007 40.2496 6.49412 
584 1 44.7504 42.5 6.49412 
585 1 49.2511 40.2496 4.24375 
586 1 51.5015 42.5 4.24375 
587 1 51.5015 40.2496 6.49412 
588 1 49.2511 42.5 6.49412 
589 1 53.7518 40.2496 4.24375 
590 1 56.0022 42.5 4.24375 
591 1 56.0022 40.2496 6.49412 
592 1 53.7518 42.5 6.49412 
593 1 58.2526 40.2496 4.24375 
594 1 60.5029 42.5 4.24375 
595 1 60.5029 40.2496 6.49412 
596 1 58.2526 42.5 6.49412 
597 1 62.7533 40.2496 4.24375 
598 1 65.0037 42.5 4.24375 
599 1 65.0037 40.2496 6.49412 
600 1 62.7533 42.5 6.49412 
601 1 67.254 40.2496 4.24375 
602 1 69.5044 42.5 4.24375 
603 1 69.5044 40.2496 6.49412 
604 1 67.254 42.5 6.49412 
605 1 71.7548 40.2496 4.24375 
606 1 74.0051 42.5 4.24375 
607 1 74.0051 40.2496 6.49412 
608 1 71.7548 42.5 6.49412 
609 1 76.2555 40.2496 4.24375 
610 1 78.5059 42.5 4.24375 
611 1 78.5059 40.2496 6.49412 
612 1 76.2555 42.5 6.49412 
613 1 4.24375 44.7504 4.24375 
614 1 6.49412 47.0007 4.24375 
615 1 6.49412 44.7504 6.49412 
616 1 4.24375 47.0007 6.49412 
617 1 8.74449 44.7504 4.24375 
618 1 10.9949 47.0007 4.24375 
619 1 10.9949 44.7504 6.49412 
620 1 8.74449 47.0007 6.49412 
621 1 13.2452 44.7504 4.24375 
622 1 15.4956 47.0007 4.24375 
623 1 15.4956 44.7504 6.49412 
624 1 13.2452 47.0007 6.49412 
625 1 17.746 44.7504 4.24375 
626 1 19.9963 47.0007 4.24375 
627 1 19.9963 44.7504 6.49412 
628 1 17.746 47.0007 6.49412 
629 1 22.2467 44.7504 4.24375 
630 1 24.4971 47.0007 4.24375 
631 1 24.4971 44.7504 6.49412 
632 1 22.2467 47.0007 6.49412 
633 1 26.7474 44.7504 4.24375 
634 1 28.9978 47.0007 4.24375 
635 1 28.9978 44.7504 6.49412 
636 1 26.7474 47.0007 6.49412 
637 1 31.2482 44.7504 4.24375 
638 1 33.4985 47.0007 4.24375 
639 1 33.4985 44.7504 6.49412 
640 1 31.2482 47.0007 6.49412 
641 1 35.7489 44.7504 4.24375 
642 1 37.9993 47.0007 4.24375 
643 1 37.9993 44.7504 6.49412 
644 1 35.7489 47.0007 6.49412 
645 1 40.2496 44.7504 4.24375 
646 1 42.5 47.0007 4.24375 
647 1 42.5 44.7504 6.49412 
648 1 40.2496 47.0007 6.49412 
649 1 44.7504 44.7504 4.24375 
650 1 47.0007 47.0007 4.24375 
651 1 47.0007 44.7504 6.49412 
652 1 44.7504 47.0007 6.49412 
653 1 49.2511 44.7504 4.24375 
654 1 51.5015 47.0007 4.24375 
655 1 51.5015 44.7504 6.49412 
656 1 49.2511 47.0007 6.49412 
657 1 53.7518 44.7504 4.24375 
658 1 56.0022 47.0007 4.24375 
659 1 56.0022 44.7504 6.49412 
660 1 53.7518 47.0007 6.49412 
661 1 58.2526 44.7504 4.24375 
662 1 60.5029 47.0007 4.24375 
663 1 60.5029 44.7504 6.49412 
664 1 58.2526 47.0007 6.49412 
665 1 62.7533 44.7504 4.24375 
666 1 65.0037 47.0007 4.24375 
667 1 65.0037 44.7504 6.49412 
668 1 62.7533 47.0007 6.49412 
669 1 67.254 44.7504 4.24375 
670 1 69.5044 47.0007 4.24375 
671 1 69.5044 44.7504 6.49412 
672 1 67.254 47.0007 6.49412 
673 1 71.7548 44.7504 4.24375 
674 1 74.0051 47.0007 4.24375 
675 1 74.0051 44.7504 6.49412 
676 1 71.7548 47.0007 6.49412 
677 1 76.2555 44.7504 4.24375 
678 1 78.5059 47.0007 4.24375 
679 1 78.5059 44.7504 6.49412 
680 1 76.2555 47.0007 6.49412 
681 1 4.24375 49.2511 4.24375 
682 1 6.49412 51.5015 4.24375 
683 1 6.49412 49.2511 6.49412 
684 1 4.24375 51.5015 6.49412 
685 1 8.74449 49.2511 4.24375 
686 1 10.9949 51.5015 4.24375 
687 1 10.9949 49.2511 6.49412 
688 1 8.74449 51.5015 6.49412 
689 1 13.2452 49.2511 4.24375 
690 1 15.4956 51.5015 4.24375 
691 1 15.4956 49.2511 6.49412 
692 1 13.2452 51.5015 6.49412 
693 1 17.746 49.2511 4.24375 
694 1 19.9963 51.5015 4.24375 
695 1 19.9963 49.2511 6.49412 
696 1 17.746 51.5015 6.49412 
697 1 22.2467 49.2511 4.24375 
698 1 24.4971 51.5015 4.24375 
699 1 24.4971 49.2511 6.49412 
700 1 22.2467 51.5015 6.49412 
701 1 26.7474 49.2511 4.24375 
702 1 28.9978 51.5015 4.24375 
703 1 28.9978 49.2511 6.49412 
704 1 26.7474 51.5015 6.49412 
705 1 31.2482 49.2511 4.24375 
706 1 33.4985 51.5015 4.24375 
707 1 33.4985 49.2511 6.49412 
708 1 31.2482 51.5015 6.49412 
709 1 35.7489 49.2511 4.24375 
710 1 37.9993 51.5015 4.24375 
711 1 37.9993 49.2511 6.49412 
712 1 35.7489 51.5015 6.49412 
713 1 40.2496 49.2511 4.24375 
714 1 42.5 51.5015 4.24375 
715 1 42.5 49.2511 6.49412 
716 1 40.2496 51.5015 6.49412 
717 1 44.7504 49.2511 4.24375 
718 1 47.0007 51.5015 4.24375 
719 1 47.0007 49.2511 6.49412 
720 1 44.7504 51.5015 6.49412 
721 1 49.2511 49.2511 4.24375 
722 1 51.5015 51.5015 4.24375 
723 1 51.5015 49.2511 6.49412 
724 1 49.2511 51.5015 6.49412 
725 1 53.7518 49.2511 4.24375 
726 1 56.0022 51.5015 4.24375 
727 1 56.0022 49.2511 6.49412 
728 1 53.7518 51.5015 6.49412 
729 1 58.2526 49.2511 4.24375 
730 1 60.5029 51.5015 4.24375 
731 1 60.5029 49.2511 6.49412 
732 1 58.2526 51.5015 6.49412 
733 1 62.7533 49.2511 4.24375 
734 1 65.0037 51.5015 4.24375 
735 1 65.0037 49.2511 6.49412 
736 1 62.7533 51.5015 6.49412 
737 1 67.254 49.2511 4.24375 
738 1 69.5044 51.5015 4.24375 
739 1 69.5044 49.2511 6.49412 
740 1 67.254 51.5015 6.49412 
741 1 71.7548 49.2511 4.24375 
742 1 74.0051 51.5015 4.24375 
743 1 74.0051 49.2511 6.49412 
744 1 71.7548 51.5015 6.49412 
745 1 76.2555 49.2511 4.24375 
746 1 78.5059 51.5015 4.24375 
747 1 78.5059 49.2511 6.49412 
748 1 76.2555 51.5015 6.49412 
749 1 4.24375 53.7518 4.24375 
750 1 6.49412 56.0022 4.24375 
751 1 6.49412 53.7518 6.49412 
752 1 4.24375 56.0022 6.49412 
753 1 8.74449 53.7518 4.24375 
754 1 10.9949 56.0022 4.24375 
755 1 10.9949 53.7518 6.49412 
756 1 8.74449 56.0022 6.49412 
757 1 13.2452 53.7518 4.24375 
758 1 15.4956 56.0022 4.24375 
759 1 15.4956 53.7518 6.49412 
760 1 13.2452 56.0022 6.49412 
761 1 17.746 53.7518 4.24375 
762 1 19.9963 56.0022 4.24375 
763 1 19.9963 53.7518 6.49412 
764 1 17.746 56.0022 6.49412 
765 1 22.2467 53.7518 4.24375 
766 1 24.4971 56.0022 4.24375 
767 1 24.4971 53.7518 6.49412 
768 1 22.2467 56.0022 6.49412 
769 1 26.7474 53.7518 4.24375 
770 1 28.9978 56.0022 4.24375 
771 1 28.9978 53.7518 6.49412 
772 1 26.7474 56.0022 6.49412 
773 1 31.2482 53.7518 4.24375 
774 1 33.4985 56.0022 4.24375 
775 1 33.4985 53.7518 6.49412 
776 1 31.2482 56.0022 6.49412 
777 1 35.7489 53.7518 4.24375 
778 1 37.9993 56.0022 4.24375 
779 1 37.9993 53.7518 6.49412 
780 1 35.7489 56.0022 6.49412 
781 1 40.2496 53.7518 4.24375 
782 1 42.5 56.0022 4.24375 
783 1 42.5 53.7518 6.49412 
784 1 40.2496 56.0022 6.49412 
785 1 44.7504 53.7518 4.24375 
786 1 47.0007 56.0022 4.24375 
787 1 47.0007 53.7518 6.49412 
788 1 44.7504 56.0022 6.49412 
789 1 49.2511 53.7518 4.24375 
790 1 51.5015 56.0022 4.24375 
791 1 51.5015 53.7518 6.49412 
792 1 49.2511 56.0022 6.49412 
793 1 53.7518 53.7518 4.24375 
794 1 56.0022 56.0022 4.24375 
795 1 56.0022 53.7518 6.49412 
796 1 53.7518 56.0022 6.49412 
797 1 58.2526 53.7518 4.24375 
798 1 60.5029 56.0022 4.24375 
799 1 60.5029 53.7518 6.49412 
800 1 58.2526 56.0022 6.49412 
801 1 62.7533 53.7518 4.24375 
802 1 65.0037 56.0022 4.24375 
803 1 65.0037 53.7518 6.49412 
804 1 62.7533 56.0022 6.49412 
805 1 67.254 53.7518 4.24375 
806 1 69.5044 56.0022 4.24375 
807 1 69.5044 53.7518 6.49412 
808 1 67.254 56.0022 6.49412 
809 1 71.7548 53.7518 4.24375 
810 1 74.0051 56.0022 4.24375 
811 1 74.0051 53.7518 6.49412 
812 1 71.7548 56.0022 6.49412 
813 1 76.2555 53.7518 4.24375 
814 1 78.5059 56.0022 4.24375 
815 1 78.5059 53.7518 6.49412 
816 1 76.2555 56.0022 6.49412 
817 1 4.24375 58.2526 4.24375 
818 1 6.49412 60.5029 4.24375 
819 1 6.49412 58.2526 6.49412 
820 1 4.24375 60.5029 6.49412 
821 1 8.74449 58.2526 4.24375 
822 1 10.9949 60.5029 4.24375 
823 1 10.9949 58.2526 6.49412 
824 1 8.74449 60.5029 6.49412 
825 1 13.2452 58.2526 4.24375 
826 1 15.4956 60.5029 4.24375 
827 1 15.4956 58.2526 6.49412 
828 1 13.2452 60.5029 6.49412 
829 1 17.746 58.2526 4.24375 
830 1 19.9963 60.5029 4.24375 
831 1 19.9963 58.2526 6.49412 
832 1 17.746 60.5029 6.49412 
833 1 22.2467 58.2526 4.24375 
834 1 24.4971 60.5029 4.24375 
835 1 24.4971 58.2526 6.49412 
836 1 22.2467 60.5029 6.49412 
837 1 26.7474 58.2526 4.24375 
838 1 28.9978 60.5029 4.24375 
839 1 28.9978 58.2526 6.49412 
840 1 26.7474 60.5029 6.49412 
841 1 31.2482 58.2526 4.24375 
842 1 33.4985 60.5029 4.24375 
843 1 33.4985 58.2526 6.49412 
844 1 31.2482 60.5029 6.49412 
845 1 35.7489 58.2526 4.24375 
846 1 37.9993 60.5029 4.24375 
847 1 37.9993 58.2526 6.49412 
848 1 35.7489 60.5029 6.49412 
849 1 40.2496 58.2526 4.24375 
850 1 42.5 60.5029 4.24375 
851 1 42.5 58.2526 6.49412 
852 1 40.2496 60.5029 6.49412 
853 1 44.7504 58.2526 4.24375 
854 1 47.0007 60.5029 4.24375 
855 1 47.0007 58.2526 6.49412 
856 1 44.7504 60.5029 6.49412 
857 1 49.2511 58.2526 4.24375 
858 1 51.5015 60.5029 4.24375 
859 1 51.5015 58.2526 6.49412 
860 1 49.2511 60.5029 6.49412 
861 1 53.7518 58.2526 4.24375 
862 1 56.0022 60.5029 4.24375 
863 1 56.0022 58.2526 6.49412 
864 1 53.7518 60.5029 6.49412 
865 1 58.2526 58.2526 4.24375 
866 1 60.5029 60.5029 4.24375 
867 1 60.5029 58.2526 6.49412 
868 1 58.2526 60.5029 6.49412 
869 1 62.7533 58.2526 4.24375 
870 1 65.0037 60.5029 4.24375 
871 1 65.0037 58.2526 6.49412 
872 1 62.7533 60.5029 6.49412 
873 1 67.254 58.2526 4.24375 
874 1 69.5044 60.5029 4.24375 
875 1 69.5044 58.2526 6.49412 
876 1 67.254 60.5029 6.49412 
877 1 71.7548 58.2526 4.24375 
878 1 74.0051 60.5029 4.24375 
879 1 74.0051 58.2526 6.49412 
880 1 71.7548 60.5029 6.49412 
881 1 76.2555 58.2526 4.24375 
882 1 78.5059 60.5029 4.24375 
883 1 78.5059 58.2526 6.49412 
884 1 76.2555 60.5029 6.49412 
885 1 4.24375 62.7533 4.24375 
886 1 6.49412 65.0037 4.24375 
887 1 6.49412 62.7533 6.49412 
888 1 4.24375 65.0037 6.49412 
889 1 8.74449 62.7533 4.24375 
890 1 10.9949 65.0037 4.24375 
891 1 10.9949 62.7533 6.49412 
892 1 8.74449 65.0037 6.49412 
893 1 13.2452 62.7533 4.24375 
894 1 15.4956 65.0037 4.24375 
895 1 15.4956 62.7533 6.49412 
896 1 13.2452 65.0037 6.49412 
897 1 17.746 62.7533 4.24375 
898 1 19.9963 65.0037 4.24375 
899 1 19.9963 62.7533 6.49412 
900 1 17.746 65.0037 6.49412 
901 1 22.2467 62.7533 4.24375 
902 1 24.4971 65.0037 4.24375 
903 1 24.4971 62.7533 6.49412 
904 1 22.2467 65.0037 6.49412 
905 1 26.7474 62.7533 4.24375 
906 1 28.9978 65.0037 4.24375 
907 1 28.9978 62.7533 6.49412 
908 1 26.7474 65.0037 6.49412 
909 1 31.2482 62.7533 4.24375 
910 1 33.4985 65.0037 4.24375 
911 1 33.4985 62.7533 6.49412 
912 1 31.2482 65.0037 6.49412 
913 1 35.7489 62.7533 4.24375 
914 1 37.9993 65.0037 4.24375 
915 1 37.9993 62.7533 6.49412 
916 1 35.7489 65.0037 6.49412 
917 1 40.2496 62.7533 4.24375 
918 1 42.5 65.0037 4.24375 
919 1 42.5 62.7533 6.49412 
920 1 40.2496 65.0037 6.49412 
921 1 44.7504 62.7533 4.24375 
922 1 47.0007 65.0037 4.24375 
923 1 47.0007 62.7533 6.49412 
924 1 44.7504 65.0037 6.49412 
925 1 49.2511 62.7533 4.24375 
926 1 51.5015 65.0037 4.24375 
927 1 51.5015 62.7533 6.49412 
928 1 49.2511 65.0037 6.49412 
929 1 53.7518 62.7533 4.24375 
930 1 56.0022 65.0037 4.24375 
931 1 56.0022 62.7533 6.49412 
932 1 53.7518 65.0037 6.49412 
933 1 58.2526 62.7533 4.24375 
934 1 60.5029 65.0037 4.24375 
935 1 60.5029 62.7533 6.49412 
936 1 58.2526 65.0037 6.49412 
937 1 62.7533 62.7533 4.24375 
938 1 65.0037 65.0037 4.24375 
939 1 65.0037 62.7533 6.49412 
940 1 62.7533 65.0037 6.49412 
941 1 67.254 62.7533 4.24375 
942 1 69.5044 65.0037 4.24375 
943 1 69.5044 62.7533 6.49412 
944 1 67.254 65.0037 6.49412 
945 1 71.7548 62.7533 4.24375 
946 1 74.0051 65.0037 4.24375 
947 1 74.0051 62.7533 6.49412 
948 1 71.7548 65.0037 6.49412 
949 1 76.2555 62.7533 4.24375 
950 1 78.5059 65.0037 4.24375 
951 1 78.5059 62.7533 6.49412 
952 1 76.2555 65.0037 6.49412 
953 1 4.24375 67.254 4.24375 
954 1 6.49412 69.5044 4.24375 
955 1 6.49412 67.254 6.49412 
956 1 4.24375 69.5044 6.49412 
957 1 8.74449 67.254 4.24375 
958 1 10.9949 69.5044 4.24375 
959 1 10.9949 67.254 6.49412 
960 1 8.74449 69.5044 6.49412 
961 1 13.2452 67.254 4.24375 
962 1 15.4956 69.5044 4.24375 
963 1 15.4956 67.254 6.49412 
964 1 13.2452 69.5044 6.49412 
965 1 17.746 67.254 4.24375 
966 1 19.9963 69.5044 4.24375 
967 1 19.9963 67.254 6.49412 
968 1 17.746 69.5044 6.49412 
969 1 22.2467 67.254 4.24375 
970 1 24.4971 69.5044 4.24375 
971 1 24.4971 67.254 6.49412 
972 1 22.2467 69.5044 6.49412 