ITEM: TIMESTEP
40
ITEM: NUMBER OF ATOMS
9826
ITEM: BOX BOUNDS pp pp pp
7.7636617068203844e+00 7.7236338293179415e+01
7.7636617068203844e+00 7.7236338293179415e+01
7.7636617068203844e+00 7.7236338293179415e+01
ITEM: ATOMS id type xu yu zu 
1 2 7.76366 7.76366 7.76366 
2 2 9.80698 9.80698 9.80698 
3 2 11.8503 7.76366 7.76366 
4 2 13.8936 9.80698 9.80698 
5 2 15.9369 7.76366 7.76366 
6 2 17.9802 9.80698 9.80698 
7 2 20.0235 7.76366 7.76366 
8 2 22.0669 9.80698 9.80698 
9 2 24.1102 7.76366 7.76366 
10 2 26.1535 9.80698 9.80698 
11 2 28.1968 7.76366 7.76366 
12 2 30.2401 9.80698 9.80698 
13 2 32.2834 7.76366 7.76366 
14 2 34.3267 9.80698 9.80698 
15 2 36.3701 7.76366 7.76366 
16 2 38.4134 9.80698 9.80698 
17 2 40.4567 7.76366 7.76366 
18 2 42.5 9.80698 9.80698 
19 2 44.5433 7.76366 7.76366 
20 2 46.5866 9.80698 9.80698 
21 2 48.6299 7.76366 7.76366 
22 2 50.6733 9.80698 9.80698 
23 2 52.7166 7.76366 7.76366 
24 2 54.7599 9.80698 9.80698 
25 2 56.8032 7.76366 7.76366 
26 2 58.8465 9.80698 9.80698 
27 2 60.8898 7.76366 7.76366 
28 2 62.9331 9.80698 9.80698 
29 2 64.9765 7.76366 7.76366 
30 2 67.0198 9.80698 9.80698 
31 2 69.0631 7.76366 7.76366 
32 2 71.1064 9.80698 9.80698 
33 2 73.1497 7.76366 7.76366 
34 2 75.193 9.80698 9.80698 
35 2 7.76366 11.8503 7.76366 
36 2 9.80698 13.8936 9.80698 
37 2 11.8503 11.8503 7.76366 
38 2 13.8936 13.8936 9.80698 
39 2 15.9369 11.8503 7.76366 
40 2 17.9802 13.8936 9.80698 
41 2 20.0235 11.8503 7.76366 
42 2 22.0669 13.8936 9.80698 
43 2 24.1102 11.8503 7.76366 
44 2 26.1535 13.8936 9.80698 
45 2 28.1968 11.8503 7.76366 
46 2 30.2401 13.8936 9.80698 
47 2 32.2834 11.8503 7.76366 
48 2 34.3267 13.8936 9.80698 
49 2 36.3701 11.8503 7.76366 
50 2 38.4134 13.8936 9.80698 
51 2 40.4567 11.8503 7.76366 
52 2 42.5 13.8936 9.80698 
53 2 44.5433 11.8503 7.76366 
54 2 46.5866 13.8936 9.80698 
55 2 48.6299 11.8503 7.76366 
56 2 50.6733 13.8936 9.80698 
57 2 52.7166 11.8503 7.76366 
58 2 54.7599 13.8936 9.80698 
59 2 56.8032 11.8503 7.76366 
60 2 58.8465 13.8936 9.80698 
61 2 60.8898 11.8503 7.76366 
62 2 62.9331 13.8936 9.80698 
63 2 64.9765 11.8503 7.76366 
64 2 67.0198 13.8936 9.80698 
65 2 69.0631 11.8503 7.76366 
66 2 71.1064 13.8936 9.80698 
67 2 73.1497 11.8503 7.76366 
68 2 75.193 13.8936 9.80698 
69 2 7.76366 15.9369 7.76366 
70 2 9.80698 17.9802 9.80698 
71 2 11.8503 15.9369 7.76366 
72 2 13.8936 17.9802 9.80698 
73 2 15.9369 15.9369 7.76366 
74 2 17.9802 17.9802 9.80698 
75 2 20.0235 15.9369 7.76366 
76 2 22.0669 17.9802 9.80698 
77 2 24.1102 15.9369 7.76366 
78 2 26.1535 17.9802 9.80698 
79 2 28.1968 15.9369 7.76366 
80 2 30.2401 17.9802 9.80698 
81 2 32.2834 15.9369 7.76366 
82 2 34.3267 17.9802 9.80698 
83 2 36.3701 15.9369 7.76366 
84 2 38.4134 17.9802 9.80698 
85 2 40.4567 15.9369 7.76366 
86 2 42.5 17.9802 9.80698 
87 2 44.5433 15.9369 7.76366 
88 2 46.5866 17.9802 9.80698 
89 2 48.6299 15.9369 7.76366 
90 2 50.6733 17.9802 9.80698 
91 2 52.7166 15.9369 7.76366 
92 2 54.7599 17.9802 9.80698 
93 2 56.8032 15.9369 7.76366 
94 2 58.8465 17.9802 9.80698 
95 2 60.8898 15.9369 7.76366 
96 2 62.9331 17.9802 9.80698 
97 2 64.9765 15.9369 7.76366 
98 2 67.0198 17.9802 9.80698 
99 2 69.0631 15.9369 7.76366 
100 2 71.1064 17.9802 9.80698 
101 2 73.1497 15.9369 7.76366 
102 2 75.193 17.9802 9.80698 
103 2 7.76366 20.0235 7.76366 
104 2 9.80698 22.0669 9.80698 
105 2 11.8503 20.0235 7.76366 
106 2 13.8936 22.0669 9.80698 
107 2 15.9369 20.0235 7.76366 
108 2 17.9802 22.0669 9.80698 
109 2 20.0235 20.0235 7.76366 
110 2 22.0669 22.0669 9.80698 
111 2 24.1102 20.0235 7.76366 
112 2 26.1535 22.0669 9.80698 
113 2 28.1968 20.0235 7.76366 
114 2 30.2401 22.0669 9.80698 
115 2 32.2834 20.0235 7.76366 
116 2 34.3267 22.0669 9.80698 
117 2 36.3701 20.0235 7.76366 
118 2 38.4134 22.0669 9.80698 
119 2 40.4567 20.0235 7.76366 
120 2 42.5 22.0669 9.80698 
121 2 44.5433 20.0235 7.76366 
122 2 46.5866 22.0669 9.80698 
123 2 48.6299 20.0235 7.76366 
124 2 50.6733 22.0669 9.80698 
125 2 52.7166 20.0235 7.76366 
126 2 54.7599 22.0669 9.80698 
127 2 56.8032 20.0235 7.76366 
128 2 58.8465 22.0669 9.80698 
129 2 60.8898 20.0235 7.76366 
130 2 62.9331 22.0669 9.80698 
131 2 64.9765 20.0235 7.76366 
132 2 67.0198 22.0669 9.80698 
133 2 69.0631 20.0235 7.76366 
134 2 71.1064 22.0669 9.80698 
135 2 73.1497 20.0235 7.76366 
136 2 75.193 22.0669 9.80698 
137 2 7.76366 24.1102 7.76366 
138 2 9.80698 26.1535 9.80698 
139 2 11.8503 24.1102 7.76366 
140 2 13.8936 26.1535 9.80698 
141 2 15.9369 24.1102 7.76366 
142 2 17.9802 26.1535 9.80698 
143 2 20.0235 24.1102 7.76366 
144 2 22.0669 26.1535 9.80698 
145 2 24.1102 24.1102 7.76366 
146 2 26.1535 26.1535 9.80698 
147 2 28.1968 24.1102 7.76366 
148 2 30.2401 26.1535 9.80698 
149 2 32.2834 24.1102 7.76366 
150 2 34.3267 26.1535 9.80698 
151 2 36.3701 24.1102 7.76366 
152 2 38.4134 26.1535 9.80698 
153 2 40.4567 24.1102 7.76366 
154 2 42.5 26.1535 9.80698 
155 2 44.5433 24.1102 7.76366 
156 2 46.5866 26.1535 9.80698 
157 2 48.6299 24.1102 7.76366 
158 2 50.6733 26.1535 9.80698 
159 2 52.7166 24.1102 7.76366 
160 2 54.7599 26.1535 9.80698 
161 2 56.8032 24.1102 7.76366 
162 2 58.8465 26.1535 9.80698 
163 2 60.8898 24.1102 7.76366 
164 2 62.9331 26.1535 9.80698 
165 2 64.9765 24.1102 7.76366 
166 2 67.0198 26.1535 9.80698 
167 2 69.0631 24.1102 7.76366 
168 2 71.1064 26.1535 9.80698 
169 2 73.1497 24.1102 7.76366 
170 2 75.193 26.1535 9.80698 
171 2 7.76366 28.1968 7.76366 
172 2 9.80698 30.2401 9.80698 
173 2 11.8503 28.1968 7.76366 
174 2 13.8936 30.2401 9.80698 
175 2 15.9369 28.1968 7.76366 
176 2 17.9802 30.2401 9.80698 
177 2 20.0235 28.1968 7.76366 
178 2 22.0669 30.2401 9.80698 
179 2 24.1102 28.1968 7.76366 
180 2 26.1535 30.2401 9.80698 
181 2 28.1968 28.1968 7.76366 
182 2 30.2401 30.2401 9.80698 
183 2 32.2834 28.1968 7.76366 
184 2 34.3267 30.2401 9.80698 
185 2 36.3701 28.1968 7.76366 
186 2 38.4134 30.2401 9.80698 
187 2 40.4567 28.1968 7.76366 
188 2 42.5 30.2401 9.80698 
189 2 44.5433 28.1968 7.76366 
190 2 46.5866 30.2401 9.80698 
191 2 48.6299 28.1968 7.76366 
192 2 50.6733 30.2401 9.80698 
193 2 52.7166 28.1968 7.76366 
194 2 54.7599 30.2401 9.80698 
195 2 56.8032 28.1968 7.76366 
196 2 58.8465 30.2401 9.80698 
197 2 60.8898 28.1968 7.76366 
198 2 62.9331 30.2401 9.80698 
199 2 64.9765 28.1968 7.76366 
200 2 67.0198 30.2401 9.80698 
201 2 69.0631 28.1968 7.76366 
202 2 71.1064 30.2401 9.80698 
203 2 73.1497 28.1968 7.76366 
204 2 75.193 30.2401 9.80698 
205 2 7.76366 32.2834 7.76366 
206 2 9.80698 34.3267 9.80698 
207 2 11.8503 32.2834 7.76366 
208 2 13.8936 34.3267 9.80698 
209 2 15.9369 32.2834 7.76366 
210 2 17.9802 34.3267 9.80698 
211 2 20.0235 32.2834 7.76366 
212 2 22.0669 34.3267 9.80698 
213 2 24.1102 32.2834 7.76366 
214 2 26.1535 34.3267 9.80698 
215 2 28.1968 32.2834 7.76366 
216 2 30.2401 34.3267 9.80698 
217 2 32.2834 32.2834 7.76366 
218 2 34.3267 34.3267 9.80698 
219 2 36.3701 32.2834 7.76366 
220 2 38.4134 34.3267 9.80698 
221 2 40.4567 32.2834 7.76366 
222 2 42.5 34.3267 9.80698 
223 2 44.5433 32.2834 7.76366 
224 2 46.5866 34.3267 9.80698 
225 2 48.6299 32.2834 7.76366 
226 2 50.6733 34.3267 9.80698 
227 2 52.7166 32.2834 7.76366 
228 2 54.7599 34.3267 9.80698 
229 2 56.8032 32.2834 7.76366 
230 2 58.8465 34.3267 9.80698 
231 2 60.8898 32.2834 7.76366 
232 2 62.9331 34.3267 9.80698 
233 2 64.9765 32.2834 7.76366 
234 2 67.0198 34.3267 9.80698 
235 2 69.0631 32.2834 7.76366 
236 2 71.1064 34.3267 9.80698 
237 2 73.1497 32.2834 7.76366 
238 2 75.193 34.3267 9.80698 
239 2 7.76366 36.3701 7.76366 
240 2 9.80698 38.4134 9.80698 
241 2 11.8503 36.3701 7.76366 
242 2 13.8936 38.4134 9.80698 
243 2 15.9369 36.3701 7.76366 
244 2 17.9802 38.4134 9.80698 
245 2 20.0235 36.3701 7.76366 
246 2 22.0669 38.4134 9.80698 
247 2 24.1102 36.3701 7.76366 
248 2 26.1535 38.4134 9.80698 
249 2 28.1968 36.3701 7.76366 
250 2 30.2401 38.4134 9.80698 
251 2 32.2834 36.3701 7.76366 
252 2 34.3267 38.4134 9.80698 
253 2 36.3701 36.3701 7.76366 
254 2 38.4134 38.4134 9.80698 
255 2 40.4567 36.3701 7.76366 
256 2 42.5 38.4134 9.80698 
257 2 44.5433 36.3701 7.76366 
258 2 46.5866 38.4134 9.80698 
259 2 48.6299 36.3701 7.76366 
260 2 50.6733 38.4134 9.80698 
261 2 52.7166 36.3701 7.76366 
262 2 54.7599 38.4134 9.80698 
263 2 56.8032 36.3701 7.76366 
264 2 58.8465 38.4134 9.80698 
265 2 60.8898 36.3701 7.76366 
266 2 62.9331 38.4134 9.80698 
267 2 64.9765 36.3701 7.76366 
268 2 67.0198 38.4134 9.80698 
269 2 69.0631 36.3701 7.76366 
270 2 71.1064 38.4134 9.80698 
271 2 73.1497 36.3701 7.76366 
272 2 75.193 38.4134 9.80698 
273 2 7.76366 40.4567 7.76366 
274 2 9.80698 42.5 9.80698 
275 2 11.8503 40.4567 7.76366 
276 2 13.8936 42.5 9.80698 
277 2 15.9369 40.4567 7.76366 
278 2 17.9802 42.5 9.80698 
279 2 20.0235 40.4567 7.76366 
280 2 22.0669 42.5 9.80698 
281 2 24.1102 40.4567 7.76366 
282 2 26.1535 42.5 9.80698 
283 2 28.1968 40.4567 7.76366 
284 2 30.2401 42.5 9.80698 
285 2 32.2834 40.4567 7.76366 
286 2 34.3267 42.5 9.80698 
287 2 36.3701 40.4567 7.76366 
288 2 38.4134 42.5 9.80698 
289 2 40.4567 40.4567 7.76366 
290 2 42.5 42.5 9.80698 
291 2 44.5433 40.4567 7.76366 
292 2 46.5866 42.5 9.80698 
293 2 48.6299 40.4567 7.76366 
294 2 50.6733 42.5 9.80698 
295 2 52.7166 40.4567 7.76366 
296 2 54.7599 42.5 9.80698 
297 2 56.8032 40.4567 7.76366 
298 2 58.8465 42.5 9.80698 
299 2 60.8898 40.4567 7.76366 
300 2 62.9331 42.5 9.80698 
301 2 64.9765 40.4567 7.76366 
302 2 67.0198 42.5 9.80698 
303 2 69.0631 40.4567 7.76366 
304 2 71.1064 42.5 9.80698 
305 2 73.1497 40.4567 7.76366 
306 2 75.193 42.5 9.80698 
307 2 7.76366 44.5433 7.76366 
308 2 9.80698 46.5866 9.80698 
309 2 11.8503 44.5433 7.76366 
310 2 13.8936 46.5866 9.80698 
311 2 15.9369 44.5433 7.76366 
312 2 17.9802 46.5866 9.80698 
313 2 20.0235 44.5433 7.76366 
314 2 22.0669 46.5866 9.80698 
315 2 24.1102 44.5433 7.76366 
316 2 26.1535 46.5866 9.80698 
317 2 28.1968 44.5433 7.76366 
318 2 30.2401 46.5866 9.80698 
319 2 32.2834 44.5433 7.76366 
320 2 34.3267 46.5866 9.80698 
321 2 36.3701 44.5433 7.76366 
322 2 38.4134 46.5866 9.80698 
323 2 40.4567 44.5433 7.76366 
324 2 42.5 46.5866 9.80698 
325 2 44.5433 44.5433 7.76366 
326 2 46.5866 46.5866 9.80698 
327 2 48.6299 44.5433 7.76366 
328 2 50.6733 46.5866 9.80698 
329 2 52.7166 44.5433 7.76366 
330 2 54.7599 46.5866 9.80698 
331 2 56.8032 44.5433 7.76366 
332 2 58.8465 46.5866 9.80698 
333 2 60.8898 44.5433 7.76366 
334 2 62.9331 46.5866 9.80698 
335 2 64.9765 44.5433 7.76366 
336 2 67.0198 46.5866 9.80698 
337 2 69.0631 44.5433 7.76366 
338 2 71.1064 46.5866 9.80698 
339 2 73.1497 44.5433 7.76366 
340 2 75.193 46.5866 9.80698 
341 2 7.76366 48.6299 7.76366 
342 2 9.80698 50.6733 9.80698 
343 2 11.8503 48.6299 7.76366 
344 2 13.8936 50.6733 9.80698 
345 2 15.9369 48.6299 7.76366 
346 2 17.9802 50.6733 9.80698 
347 2 20.0235 48.6299 7.76366 
348 2 22.0669 50.6733 9.80698 
349 2 24.1102 48.6299 7.76366 
350 2 26.1535 50.6733 9.80698 
351 2 28.1968 48.6299 7.76366 
352 2 30.2401 50.6733 9.80698 
353 2 32.2834 48.6299 7.76366 
354 2 34.3267 50.6733 9.80698 
355 2 36.3701 48.6299 7.76366 
356 2 38.4134 50.6733 9.80698 
357 2 40.4567 48.6299 7.76366 
358 2 42.5 50.6733 9.80698 
359 2 44.5433 48.6299 7.76366 
360 2 46.5866 50.6733 9.80698 
361 2 48.6299 48.6299 7.76366 
362 2 50.6733 50.6733 9.80698 
363 2 52.7166 48.6299 7.76366 
364 2 54.7599 50.6733 9.80698 
365 2 56.8032 48.6299 7.76366 
366 2 58.8465 50.6733 9.80698 
367 2 60.8898 48.6299 7.76366 
368 2 62.9331 50.6733 9.80698 
369 2 64.9765 48.6299 7.76366 
370 2 67.0198 50.6733 9.80698 
371 2 69.0631 48.6299 7.76366 
372 2 71.1064 50.6733 9.80698 
373 2 73.1497 48.6299 7.76366 
374 2 75.193 50.6733 9.80698 
375 2 7.76366 52.7166 7.76366 
376 2 9.80698 54.7599 9.80698 
377 2 11.8503 52.7166 7.76366 
378 2 13.8936 54.7599 9.80698 
379 2 15.9369 52.7166 7.76366 
380 2 17.9802 54.7599 9.80698 
381 2 20.0235 52.7166 7.76366 
382 2 22.0669 54.7599 9.80698 
383 2 24.1102 52.7166 7.76366 
384 2 26.1535 54.7599 9.80698 
385 2 28.1968 52.7166 7.76366 
386 2 30.2401 54.7599 9.80698 
387 2 32.2834 52.7166 7.76366 
388 2 34.3267 54.7599 9.80698 
389 2 36.3701 52.7166 7.76366 
390 2 38.4134 54.7599 9.80698 
391 2 40.4567 52.7166 7.76366 
392 2 42.5 54.7599 9.80698 
393 2 44.5433 52.7166 7.76366 
394 2 46.5866 54.7599 9.80698 
395 2 48.6299 52.7166 7.76366 
396 2 50.6733 54.7599 9.80698 
397 2 52.7166 52.7166 7.76366 
398 2 54.7599 54.7599 9.80698 
399 2 56.8032 52.7166 7.76366 
400 2 58.8465 54.7599 9.80698 
401 2 60.8898 52.7166 7.76366 
402 2 62.9331 54.7599 9.80698 
403 2 64.9765 52.7166 7.76366 
404 2 67.0198 54.7599 9.80698 
405 2 69.0631 52.7166 7.76366 
406 2 71.1064 54.7599 9.80698 
407 2 73.1497 52.7166 7.76366 
408 2 75.193 54.7599 9.80698 
409 2 7.76366 56.8032 7.76366 
410 2 9.80698 58.8465 9.80698 
411 2 11.8503 56.8032 7.76366 
412 2 13.8936 58.8465 9.80698 
413 2 15.9369 56.8032 7.76366 
414 2 17.9802 58.8465 9.80698 
415 2 20.0235 56.8032 7.76366 
416 2 22.0669 58.8465 9.80698 
417 2 24.1102 56.8032 7.76366 
418 2 26.1535 58.8465 9.80698 
419 2 28.1968 56.8032 7.76366 
420 2 30.2401 58.8465 9.80698 
421 2 32.2834 56.8032 7.76366 
422 2 34.3267 58.8465 9.80698 
423 2 36.3701 56.8032 7.76366 
424 2 38.4134 58.8465 9.80698 
425 2 40.4567 56.8032 7.76366 
426 2 42.5 58.8465 9.80698 
427 2 44.5433 56.8032 7.76366 
428 2 46.5866 58.8465 9.80698 
429 2 48.6299 56.8032 7.76366 
430 2 50.6733 58.8465 9.80698 
431 2 52.7166 56.8032 7.76366 
432 2 54.7599 58.8465 9.80698 
433 2 56.8032 56.8032 7.76366 
434 2 58.8465 58.8465 9.80698 
435 2 60.8898 56.8032 7.76366 
436 2 62.9331 58.8465 9.80698 
437 2 64.9765 56.8032 7.76366 
438 2 67.0198 58.8465 9.80698 
439 2 69.0631 56.8032 7.76366 
440 2 71.1064 58.8465 9.80698 
441 2 73.1497 56.8032 7.76366 
442 2 75.193 58.8465 9.80698 
443 2 7.76366 60.8898 7.76366 
444 2 9.80698 62.9331 9.80698 
445 2 11.8503 60.8898 7.76366 
446 2 13.8936 62.9331 9.80698 
447 2 15.9369 60.8898 7.76366 
448 2 17.9802 62.9331 9.80698 
449 2 20.0235 60.8898 7.76366 
450 2 22.0669 62.9331 9.80698 
451 2 24.1102 60.8898 7.76366 
452 2 26.1535 62.9331 9.80698 
453 2 28.1968 60.8898 7.76366 
454 2 30.2401 62.9331 9.80698 
455 2 32.2834 60.8898 7.76366 
456 2 34.3267 62.9331 9.80698 
457 2 36.3701 60.8898 7.76366 
458 2 38.4134 62.9331 9.80698 
459 2 40.4567 60.8898 7.76366 
460 2 42.5 62.9331 9.80698 
461 2 44.5433 60.8898 7.76366 
462 2 46.5866 62.9331 9.80698 
463 2 48.6299 60.8898 7.76366 
464 2 50.6733 62.9331 9.80698 
465 2 52.7166 60.8898 7.76366 
466 2 54.7599 62.9331 9.80698 
467 2 56.8032 60.8898 7.76366 
468 2 58.8465 62.9331 9.80698 
469 2 60.8898 60.8898 7.76366 
470 2 62.9331 62.9331 9.80698 
471 2 64.9765 60.8898 7.76366 
472 2 67.0198 62.9331 9.80698 
473 2 69.0631 60.8898 7.76366 
474 2 71.1064 62.9331 9.80698 
475 2 73.1497 60.8898 7.76366 
476 2 75.193 62.9331 9.80698 
477 2 7.76366 64.9765 7.76366 
478 2 9.80698 67.0198 9.80698 
479 2 11.8503 64.9765 7.76366 
480 2 13.8936 67.0198 9.80698 
481 2 15.9369 64.9765 7.76366 
482 2 17.9802 67.0198 9.80698 
483 2 20.0235 64.9765 7.76366 
484 2 22.0669 67.0198 9.80698 
485 2 24.1102 64.9765 7.76366 
486 2 26.1535 67.0198 9.80698 
487 2 28.1968 64.9765 7.76366 
488 2 30.2401 67.0198 9.80698 
489 2 32.2834 64.9765 7.76366 
490 2 34.3267 67.0198 9.80698 
491 2 36.3701 64.9765 7.76366 
492 2 38.4134 67.0198 9.80698 
493 2 40.4567 64.9765 7.76366 
494 2 42.5 67.0198 9.80698 
495 2 44.5433 64.9765 7.76366 
496 2 46.5866 67.0198 9.80698 
497 2 48.6299 64.9765 7.76366 
498 2 50.6733 67.0198 9.80698 
499 2 52.7166 64.9765 7.76366 
500 2 54.7599 67.0198 9.80698 
501 2 56.8032 64.9765 7.76366 
502 2 58.8465 67.0198 9.80698 
503 2 60.8898 64.9765 7.76366 
504 2 62.9331 67.0198 9.80698 
505 2 64.9765 64.9765 7.76366 
506 2 67.0198 67.0198 9.80698 
507 2 69.0631 64.9765 7.76366 
508 2 71.1064 67.0198 9.80698 
509 2 73.1497 64.9765 7.76366 
510 2 75.193 67.0198 9.80698 
511 2 7.76366 69.0631 7.76366 
512 2 9.80698 71.1064 9.80698 
513 2 11.8503 69.0631 7.76366 
514 2 13.8936 71.1064 9.80698 
515 2 15.9369 69.0631 7.76366 
516 2 17.9802 71.1064 9.80698 
517 2 20.0235 69.0631 7.76366 
518 2 22.0669 71.1064 9.80698 
519 2 24.1102 69.0631 7.76366 
520 2 26.1535 71.1064 9.80698 
521 2 28.1968 69.0631 7.76366 
522 2 30.2401 71.1064 9.80698 
523 2 32.2834 69.0631 7.76366 
524 2 34.3267 71.1064 9.80698 
525 2 36.3701 69.0631 7.76366 
526 2 38.4134 71.1064 9.80698 
527 2 40.4567 69.0631 7.76366 
528 2 42.5 71.1064 9.80698 
529 2 44.5433 69.0631 7.76366 
530 2 46.5866 71.1064 9.80698 
531 2 48.6299 69.0631 7.76366 
532 2 50.6733 71.1064 9.80698 
533 2 52.7166 69.0631 7.76366 
534 2 54.7599 71.1064 9.80698 
535 2 56.8032 69.0631 7.76366 
536 2 58.8465 71.1064 9.80698 
537 2 60.8898 69.0631 7.76366 
538 2 62.9331 71.1064 9.80698 
539 2 64.9765 69.0631 7.76366 
540 2 67.0198 71.1064 9.80698 
541 2 69.0631 69.0631 7.76366 
542 2 71.1064 71.1064 9.80698 
543 2 73.1497 69.0631 7.76366 
544 2 75.193 71.1064 9.80698 
545 2 7.76366 73.1497 7.76366 
546 2 9.80698 75.193 9.80698 
547 2 11.8503 73.1497 7.76366 
548 2 13.8936 75.193 9.80698 
549 2 15.9369 73.1497 7.76366 
550 2 17.9802 75.193 9.80698 
551 2 20.0235 73.1497 7.76366 
552 2 22.0669 75.193 9.80698 
553 2 24.1102 73.1497 7.76366 
554 2 26.1535 75.193 9.80698 
555 2 28.1968 73.1497 7.76366 
556 2 30.2401 75.193 9.80698 
557 2 32.2834 73.1497 7.76366 
558 2 34.3267 75.193 9.80698 
559 2 36.3701 73.1497 7.76366 
560 2 38.4134 75.193 9.80698 
561 2 40.4567 73.1497 7.76366 
562 2 42.5 75.193 9.80698 
563 2 44.5433 73.1497 7.76366 
564 2 46.5866 75.193 9.80698 
565 2 48.6299 73.1497 7.76366 
566 2 50.6733 75.193 9.80698 
567 2 52.7166 73.1497 7.76366 
568 2 54.7599 75.193 9.80698 
569 2 56.8032 73.1497 7.76366 
570 2 58.8465 75.193 9.80698 
571 2 60.8898 73.1497 7.76366 
572 2 62.9331 75.193 9.80698 
573 2 64.9765 73.1497 7.76366 
574 2 67.0198 75.193 9.80698 
575 2 69.0631 73.1497 7.76366 
576 2 71.1064 75.193 9.80698 
577 2 73.1497 73.1497 7.76366 
578 2 75.193 75.193 9.80698 
579 2 7.76366 7.76366 11.8503 
580 2 9.80698 9.80698 13.8936 
581 2 11.8503 7.76366 11.8503 
582 2 13.8936 9.80698 13.8936 
583 2 15.9369 7.76366 11.8503 
584 2 17.9802 9.80698 13.8936 
585 2 20.0235 7.76366 11.8503 
586 2 22.0669 9.80698 13.8936 
587 2 24.1102 7.76366 11.8503 
588 2 26.1535 9.80698 13.8936 
589 2 28.1968 7.76366 11.8503 
590 2 30.2401 9.80698 13.8936 
591 2 32.2834 7.76366 11.8503 
592 2 34.3267 9.80698 13.8936 
593 2 36.3701 7.76366 11.8503 
594 2 38.4134 9.80698 13.8936 
595 2 40.4567 7.76366 11.8503 
596 2 42.5 9.80698 13.8936 
597 2 44.5433 7.76366 11.8503 
598 2 46.5866 9.80698 13.8936 
599 2 48.6299 7.76366 11.8503 
600 2 50.6733 9.80698 13.8936 
601 2 52.7166 7.76366 11.8503 
602 2 54.7599 9.80698 13.8936 
603 2 56.8032 7.76366 11.8503 
604 2 58.8465 9.80698 13.8936 
605 2 60.8898 7.76366 11.8503 
606 2 62.9331 9.80698 13.8936 
607 2 64.9765 7.76366 11.8503 
608 2 67.0198 9.80698 13.8936 
609 2 69.0631 7.76366 11.8503 
610 2 71.1064 9.80698 13.8936 
611 2 73.1497 7.76366 11.8503 
612 2 75.193 9.80698 13.8936 
613 2 7.76366 11.8503 11.8503 
614 2 9.80698 13.8936 13.8936 
615 2 11.8503 11.8503 11.8503 
616 2 13.8936 13.8936 13.8936 
617 2 15.9369 11.8503 11.8503 
618 2 17.9802 13.8936 13.8936 
619 2 20.0235 11.8503 11.8503 
620 2 22.0669 13.8936 13.8936 
621 2 24.1102 11.8503 11.8503 
622 2 26.1535 13.8936 13.8936 
623 2 28.1968 11.8503 11.8503 
624 2 30.2401 13.8936 13.8936 
625 2 32.2834 11.8503 11.8503 
626 2 34.3267 13.8936 13.8936 
627 2 36.3701 11.8503 11.8503 
628 2 38.4134 13.8936 13.8936 
629 2 40.4567 11.8503 11.8503 
630 2 42.5 13.8936 13.8936 
631 2 44.5433 11.8503 11.8503 
632 2 46.5866 13.8936 13.8936 
633 2 48.6299 11.8503 11.8503 
634 2 50.6733 13.8936 13.8936 
635 2 52.7166 11.8503 11.8503 
636 2 54.7599 13.8936 13.8936 
637 2 56.8032 11.8503 11.8503 
638 2 58.8465 13.8936 13.8936 
639 2 60.8898 11.8503 11.8503 
640 2 62.9331 13.8936 13.8936 
641 2 64.9765 11.8503 11.8503 
642 2 67.0198 13.8936 13.8936 
643 2 69.0631 11.8503 11.8503 
644 2 71.1064 13.8936 13.8936 
645 2 73.1497 11.8503 11.8503 
646 2 75.193 13.8936 13.8936 
647 2 7.76366 15.9369 11.8503 
648 2 9.80698 17.9802 13.8936 
649 2 11.8503 15.9369 11.8503 
650 2 13.8936 17.9802 13.8936 
651 2 15.9369 15.9369 11.8503 
652 2 17.9802 17.9802 13.8936 
653 2 20.0235 15.9369 11.8503 
654 2 22.0669 17.9802 13.8936 
655 2 24.1102 15.9369 11.8503 
656 2 26.1535 17.9802 13.8936 
657 2 28.1968 15.9369 11.8503 
658 2 30.2401 17.9802 13.8936 
659 2 32.2834 15.9369 11.8503 
660 2 34.3267 17.9802 13.8936 
661 2 36.3701 15.9369 11.8503 
662 2 38.4134 17.9802 13.8936 
663 2 40.4567 15.9369 11.8503 
664 2 42.5 17.9802 13.8936 
665 2 44.5433 15.9369 11.8503 
666 2 46.5866 17.9802 13.8936 
667 2 48.6299 15.9369 11.8503 
668 2 50.6733 17.9802 13.8936 
669 2 52.7166 15.9369 11.8503 
670 2 54.7599 17.9802 13.8936 
671 2 56.8032 15.9369 11.8503 
672 2 58.8465 17.9802 13.8936 
673 2 60.8898 15.9369 11.8503 
674 2 62.9331 17.9802 13.8936 
675 2 64.9765 15.9369 11.8503 
676 2 67.0198 17.9802 13.8936 
677 2 69.0631 15.9369 11.8503 
678 2 71.1064 17.9802 13.8936 
679 2 73.1497 15.9369 11.8503 
680 2 75.193 17.9802 13.8936 
681 2 7.76366 20.0235 11.8503 
682 2 9.80698 22.0669 13.8936 
683 2 11.8503 20.0235 11.8503 
684 2 13.8936 22.0669 13.8936 
685 2 15.9369 20.0235 11.8503 
686 2 17.9802 22.0669 13.8936 
687 2 20.0235 20.0235 11.8503 
688 2 22.0669 22.0669 13.8936 
689 2 24.1102 20.0235 11.8503 
690 2 26.1535 22.0669 13.8936 
691 2 28.1968 20.0235 11.8503 
692 2 30.2401 22.0669 13.8936 
693 2 32.2834 20.0235 11.8503 
694 2 34.3267 22.0669 13.8936 
695 2 36.3701 20.0235 11.8503 
696 2 38.4134 22.0669 13.8936 
697 2 40.4567 20.0235 11.8503 
698 2 42.5 22.0669 13.8936 
699 2 44.5433 20.0235 11.8503 
700 2 46.5866 22.0669 13.8936 
701 2 48.6299 20.0235 11.8503 
702 2 50.6733 22.0669 13.8936 
703 2 52.7166 20.0235 11.8503 
704 2 54.7599 22.0669 13.8936 
705 2 56.8032 20.0235 11.8503 
706 2 58.8465 22.0669 13.8936 
707 2 60.8898 20.0235 11.8503 
708 2 62.9331 22.0669 13.8936 
709 2 64.9765 20.0235 11.8503 
710 2 67.0198 22.0669 13.8936 
711 2 69.0631 20.0235 11.8503 
712 2 71.1064 22.0669 13.8936 
713 2 73.1497 20.0235 11.8503 
714 2 75.193 22.0669 13.8936 
715 2 7.76366 24.1102 11.8503 
716 2 9.80698 26.1535 13.8936 
717 2 11.8503 24.1102 11.8503 
718 2 13.8936 26.1535 13.8936 
719 2 15.9369 24.1102 11.8503 
720 2 17.9802 26.1535 13.8936 
721 2 20.0235 24.1102 11.8503 
722 2 22.0669 26.1535 13.8936 
723 2 24.1102 24.1102 11.8503 
724 2 26.1535 26.1535 13.8936 
725 2 28.1968 24.1102 11.8503 
726 2 30.2401 26.1535 13.8936 
727 2 32.2834 24.1102 11.8503 
728 2 34.3267 26.1535 13.8936 
729 2 36.3701 24.1102 11.8503 
730 2 38.4134 26.1535 13.8936 
731 2 40.4567 24.1102 11.8503 
732 2 42.5 26.1535 13.8936 
733 2 44.5433 24.1102 11.8503 
734 2 46.5866 26.1535 13.8936 
735 2 48.6299 24.1102 11.8503 
736 2 50.6733 26.1535 13.8936 
737 2 52.7166 24.1102 11.8503 
738 2 54.7599 26.1535 13.8936 
739 2 56.8032 24.1102 11.8503 
740 2 58.8465 26.1535 13.8936 
741 2 60.8898 24.1102 11.8503 
742 2 62.9331 26.1535 13.8936 
743 2 64.9765 24.1102 11.8503 
744 2 67.0198 26.1535 13.8936 
745 2 69.0631 24.1102 11.8503 
746 2 71.1064 26.1535 13.8936 
747 2 73.1497 24.1102 11.8503 
748 2 75.193 26.1535 13.8936 
749 2 7.76366 28.1968 11.8503 
750 2 9.80698 30.2401 13.8936 
751 2 11.8503 28.1968 11.8503 
752 2 13.8936 30.2401 13.8936 
753 2 15.9369 28.1968 11.8503 
754 2 17.9802 30.2401 13.8936 
755 2 20.0235 28.1968 11.8503 
756 2 22.0669 30.2401 13.8936 
757 2 24.1102 28.1968 11.8503 
758 2 26.1535 30.2401 13.8936 
759 2 28.1968 28.1968 11.8503 
760 2 30.2401 30.2401 13.8936 
761 2 32.2834 28.1968 11.8503 
762 2 34.3267 30.2401 13.8936 
763 2 36.3701 28.1968 11.8503 
764 2 38.4134 30.2401 13.8936 
765 2 40.4567 28.1968 11.8503 
766 2 42.5 30.2401 13.8936 
767 2 44.5433 28.1968 11.8503 
768 2 46.5866 30.2401 13.8936 
769 2 48.6299 28.1968 11.8503 
770 2 50.6733 30.2401 13.8936 
771 2 52.7166 28.1968 11.8503 
772 2 54.7599 30.2401 13.8936 
773 2 56.8032 28.1968 11.8503 
774 2 58.8465 30.2401 13.8936 
775 2 60.8898 28.1968 11.8503 
776 2 62.9331 30.2401 13.8936 
777 2 64.9765 28.1968 11.8503 
778 2 67.0198 30.2401 13.8936 
779 2 69.0631 28.1968 11.8503 
780 2 71.1064 30.2401 13.8936 
781 2 73.1497 28.1968 11.8503 
782 2 75.193 30.2401 13.8936 
783 2 7.76366 32.2834 11.8503 
784 2 9.80698 34.3267 13.8936 
785 2 11.8503 32.2834 11.8503 
786 2 13.8936 34.3267 13.8936 
787 2 15.9369 32.2834 11.8503 
788 2 17.9802 34.3267 13.8936 
789 2 20.0235 32.2834 11.8503 
790 2 22.0669 34.3267 13.8936 
791 2 24.1102 32.2834 11.8503 
792 2 26.1535 34.3267 13.8936 
793 2 28.1968 32.2834 11.8503 
794 2 30.2401 34.3267 13.8936 
795 2 32.2834 32.2834 11.8503 
796 2 34.3267 34.3267 13.8936 
797 2 36.3701 32.2834 11.8503 
798 2 38.4134 34.3267 13.8936 
799 2 40.4567 32.2834 11.8503 
800 2 42.5 34.3267 13.8936 
801 2 44.5433 32.2834 11.8503 
802 2 46.5866 34.3267 13.8936 
803 2 48.6299 32.2834 11.8503 
804 2 50.6733 34.3267 13.8936 
805 2 52.7166 32.2834 11.8503 
806 2 54.7599 34.3267 13.8936 
807 2 56.8032 32.2834 11.8503 
808 2 58.8465 34.3267 13.8936 
809 2 60.8898 32.2834 11.8503 
810 2 62.9331 34.3267 13.8936 
811 2 64.9765 32.2834 11.8503 
812 2 67.0198 34.3267 13.8936 
813 2 69.0631 32.2834 11.8503 
814 2 71.1064 34.3267 13.8936 
815 2 73.1497 32.2834 11.8503 
816 2 75.193 34.3267 13.8936 
817 2 7.76366 36.3701 11.8503 
818 2 9.80698 38.4134 13.8936 
819 2 11.8503 36.3701 11.8503 
820 2 13.8936 38.4134 13.8936 
821 2 15.9369 36.3701 11.8503 
822 2 17.9802 38.4134 13.8936 
823 2 20.0235 36.3701 11.8503 
824 2 22.0669 38.4134 13.8936 
825 2 24.1102 36.3701 11.8503 
826 2 26.1535 38.4134 13.8936 
827 2 28.1968 36.3701 11.8503 
828 2 30.2401 38.4134 13.8936 
829 2 32.2834 36.3701 11.8503 
830 2 34.3267 38.4134 13.8936 
831 2 36.3701 36.3701 11.8503 
832 2 38.4134 38.4134 13.8936 
833 2 40.4567 36.3701 11.8503 
834 2 42.5 38.4134 13.8936 
835 2 44.5433 36.3701 11.8503 
836 2 46.5866 38.4134 13.8936 
837 2 48.6299 36.3701 11.8503 
838 2 50.6733 38.4134 13.8936 
839 2 52.7166 36.3701 11.8503 
840 2 54.7599 38.4134 13.8936 
841 2 56.8032 36.3701 11.8503 
842 2 58.8465 38.4134 13.8936 
843 2 60.8898 36.3701 11.8503 
844 2 62.9331 38.4134 13.8936 
845 2 64.9765 36.3701 11.8503 
846 2 67.0198 38.4134 13.8936 
847 2 69.0631 36.3701 11.8503 
848 2 71.1064 38.4134 13.8936 
849 2 73.1497 36.3701 11.8503 
850 2 75.193 38.4134 13.8936 
851 2 7.76366 40.4567 11.8503 
852 2 9.80698 42.5 13.8936 
853 2 11.8503 40.4567 11.8503 
854 2 13.8936 42.5 13.8936 
855 2 15.9369 40.4567 11.8503 
856 2 17.9802 42.5 13.8936 
857 2 20.0235 40.4567 11.8503 
858 2 22.0669 42.5 13.8936 
859 2 24.1102 40.4567 11.8503 
860 2 26.1535 42.5 13.8936 
861 2 28.1968 40.4567 11.8503 
862 2 30.2401 42.5 13.8936 
863 2 32.2834 40.4567 11.8503 
864 2 34.3267 42.5 13.8936 
865 2 36.3701 40.4567 11.8503 
866 2 38.4134 42.5 13.8936 
867 2 40.4567 40.4567 11.8503 
868 2 42.5 42.5 13.8936 
869 2 44.5433 40.4567 11.8503 
870 2 46.5866 42.5 13.8936 
871 2 48.6299 40.4567 11.8503 
872 2 50.6733 42.5 13.8936 
873 2 52.7166 40.4567 11.8503 
874 2 54.7599 42.5 13.8936 
875 2 56.8032 40.4567 11.8503 
876 2 58.8465 42.5 13.8936 
877 2 60.8898 40.4567 11.8503 
878 2 62.9331 42.5 13.8936 
879 2 64.9765 40.4567 11.8503 
880 2 67.0198 42.5 13.8936 
881 2 69.0631 40.4567 11.8503 
882 2 71.1064 42.5 13.8936 
883 2 73.1497 40.4567 11.8503 
884 2 75.193 42.5 13.8936 
885 2 7.76366 44.5433 11.8503 
886 2 9.80698 46.5866 13.8936 
887 2 11.8503 44.5433 11.8503 
888 2 13.8936 46.5866 13.8936 
889 2 15.9369 44.5433 11.8503 
890 2 17.9802 46.5866 13.8936 
891 2 20.0235 44.5433 11.8503 
892 2 22.0669 46.5866 13.8936 
893 2 24.1102 44.5433 11.8503 
894 2 26.1535 46.5866 13.8936 
895 2 28.1968 44.5433 11.8503 
896 2 30.2401 46.5866 13.8936 
897 2 32.2834 44.5433 11.8503 
898 2 34.3267 46.5866 13.8936 
899 2 36.3701 44.5433 11.8503 
900 2 38.4134 46.5866 13.8936 
901 2 40.4567 44.5433 11.8503 
902 2 42.5 46.5866 13.8936 
903 2 44.5433 44.5433 11.8503 
904 2 46.5866 46.5866 13.8936 
905 2 48.6299 44.5433 11.8503 
906 2 50.6733 46.5866 13.8936 
907 2 52.7166 44.5433 11.8503 
908 2 54.7599 46.5866 13.8936 
909 2 56.8032 44.5433 11.8503 
910 2 58.8465 46.5866 13.8936 
911 2 60.8898 44.5433 11.8503 
912 2 62.9331 46.5866 13.8936 
913 2 64.9765 44.5433 11.8503 
914 2 67.0198 46.5866 13.8936 
915 2 69.0631 44.5433 11.8503 
916 2 71.1064 46.5866 13.8936 
917 2 73.1497 44.5433 11.8503 
918 2 75.193 46.5866 13.8936 
919 2 7.76366 48.6299 11.8503 
920 2 9.80698 50.6733 13.8936 
921 2 11.8503 48.6299 11.8503 
922 2 13.8936 50.6733 13.8936 
923 2 15.9369 48.6299 11.8503 
924 2 17.9802 50.6733 13.8936 
925 2 20.0235 48.6299 11.8503 
926 2 22.0669 50.6733 13.8936 
927 2 24.1102 48.6299 11.8503 
928 2 26.1535 50.6733 13.8936 
929 2 28.1968 48.6299 11.8503 
930 2 30.2401 50.6733 13.8936 
931 2 32.2834 48.6299 11.8503 
932 2 34.3267 50.6733 13.8936 
933 2 36.3701 48.6299 11.8503 
934 2 38.4134 50.6733 13.8936 
935 2 40.4567 48.6299 11.8503 
936 2 42.5 50.6733 13.8936 
937 2 44.5433 48.6299 11.8503 
938 2 46.5866 50.6733 13.8936 
939 2 48.6299 48.6299 11.8503 
940 2 50.6733 50.6733 13.8936 
941 2 52.7166 48.6299 11.8503 
942 2 54.7599 50.6733 13.8936 
943 2 56.8032 48.6299 11.8503 
944 2 58.8465 50.6733 13.8936 
945 2 60.8898 48.6299 11.8503 
946 2 62.9331 50.6733 13.8936 
947 2 64.9765 48.6299 11.8503 
948 2 67.0198 50.6733 13.8936 
949 2 69.0631 48.6299 11.8503 
950 2 71.1064 50.6733 13.8936 
951 2 73.1497 48.6299 11.8503 
952 2 75.193 50.6733 13.8936 
953 2 7.76366 52.7166 11.8503 
954 2 9.80698 54.7599 13.8936 
955 2 11.8503 52.7166 11.8503 
956 2 13.8936 54.7599 13.8936 
957 2 15.9369 52.7166 11.8503 
958 2 17.9802 54.7599 13.8936 
959 2 20.0235 52.7166 11.8503 
960 2 22.0669 54.7599 13.8936 
961 2 24.1102 52.7166 11.8503 
962 2 26.1535 54.7599 13.8936 
963 2 28.1968 52.7166 11.8503 
964 2 30.2401 54.7599 13.8936 
965 2 32.2834 52.7166 11.8503 
966 2 34.3267 54.7599 13.8936 
967 2 36.3701 52.7166 11.8503 
968 2 38.4134 54.7599 13.8936 
969 2 40.4567 52.7166 11.8503 
970 2 42.5 54.7599 13.8936 
971 2 44.5433 52.7166 11.8503 