ITEM: TIMESTEP
89
ITEM: NUMBER OF ATOMS
19652
ITEM: BOX BOUNDS pp pp pp
1.8122895828583413e+01 6.6877104171416264e+01
3.1389776355384392e+01 1.1583454228797059e+02
2.9594564961095355e+01 1.0920985379661792e+02
ITEM: ATOMS id type xu yu zu 
1 2 18.1229 31.3898 29.5946 
2 2 19.5568 33.8734 29.5946 
3 2 19.5568 35.5292 31.9362 
4 2 18.1229 33.0456 31.9362 
5 2 20.9908 31.3898 29.5946 
6 2 22.4247 33.8734 29.5946 
7 2 22.4247 35.5292 31.9362 
8 2 20.9908 33.0456 31.9362 
9 2 23.8587 31.3898 29.5946 
10 2 25.2926 33.8734 29.5946 
11 2 25.2926 35.5292 31.9362 
12 2 23.8587 33.0456 31.9362 
13 2 26.7266 31.3898 29.5946 
14 2 28.1605 33.8734 29.5946 
15 2 28.1605 35.5292 31.9362 
16 2 26.7266 33.0456 31.9362 
17 2 29.5945 31.3898 29.5946 
18 2 31.0284 33.8734 29.5946 
19 2 31.0284 35.5292 31.9362 
20 2 29.5945 33.0456 31.9362 
21 2 32.4624 31.3898 29.5946 
22 2 33.8963 33.8734 29.5946 
23 2 33.8963 35.5292 31.9362 
24 2 32.4624 33.0456 31.9362 
25 2 35.3303 31.3898 29.5946 
26 2 36.7642 33.8734 29.5946 
27 2 36.7642 35.5292 31.9362 
28 2 35.3303 33.0456 31.9362 
29 2 38.1982 31.3898 29.5946 
30 2 39.6321 33.8734 29.5946 
31 2 39.6321 35.5292 31.9362 
32 2 38.1982 33.0456 31.9362 
33 2 41.0661 31.3898 29.5946 
34 2 42.5 33.8734 29.5946 
35 2 42.5 35.5292 31.9362 
36 2 41.0661 33.0456 31.9362 
37 2 43.9339 31.3898 29.5946 
38 2 45.3679 33.8734 29.5946 
39 2 45.3679 35.5292 31.9362 
40 2 43.9339 33.0456 31.9362 
41 2 46.8018 31.3898 29.5946 
42 2 48.2358 33.8734 29.5946 
43 2 48.2358 35.5292 31.9362 
44 2 46.8018 33.0456 31.9362 
45 2 49.6697 31.3898 29.5946 
46 2 51.1037 33.8734 29.5946 
47 2 51.1037 35.5292 31.9362 
48 2 49.6697 33.0456 31.9362 
49 2 52.5376 31.3898 29.5946 
50 2 53.9716 33.8734 29.5946 
51 2 53.9716 35.5292 31.9362 
52 2 52.5376 33.0456 31.9362 
53 2 55.4055 31.3898 29.5946 
54 2 56.8395 33.8734 29.5946 
55 2 56.8395 35.5292 31.9362 
56 2 55.4055 33.0456 31.9362 
57 2 58.2734 31.3898 29.5946 
58 2 59.7074 33.8734 29.5946 
59 2 59.7074 35.5292 31.9362 
60 2 58.2734 33.0456 31.9362 
61 2 61.1413 31.3898 29.5946 
62 2 62.5753 33.8734 29.5946 
63 2 62.5753 35.5292 31.9362 
64 2 61.1413 33.0456 31.9362 
65 2 64.0092 31.3898 29.5946 
66 2 65.4432 33.8734 29.5946 
67 2 65.4432 35.5292 31.9362 
68 2 64.0092 33.0456 31.9362 
69 2 18.1229 36.3571 29.5946 
70 2 19.5568 38.8408 29.5946 
71 2 19.5568 40.4966 31.9362 
72 2 18.1229 38.0129 31.9362 
73 2 20.9908 36.3571 29.5946 
74 2 22.4247 38.8408 29.5946 
75 2 22.4247 40.4966 31.9362 
76 2 20.9908 38.0129 31.9362 
77 2 23.8587 36.3571 29.5946 
78 2 25.2926 38.8408 29.5946 
79 2 25.2926 40.4966 31.9362 
80 2 23.8587 38.0129 31.9362 
81 2 26.7266 36.3571 29.5946 
82 2 28.1605 38.8408 29.5946 
83 2 28.1605 40.4966 31.9362 
84 2 26.7266 38.0129 31.9362 
85 2 29.5945 36.3571 29.5946 
86 2 31.0284 38.8408 29.5946 
87 2 31.0284 40.4966 31.9362 
88 2 29.5945 38.0129 31.9362 
89 2 32.4624 36.3571 29.5946 
90 2 33.8963 38.8408 29.5946 
91 2 33.8963 40.4966 31.9362 
92 2 32.4624 38.0129 31.9362 
93 2 35.3303 36.3571 29.5946 
94 2 36.7642 38.8408 29.5946 
95 2 36.7642 40.4966 31.9362 
96 2 35.3303 38.0129 31.9362 
97 2 38.1982 36.3571 29.5946 
98 2 39.6321 38.8408 29.5946 
99 2 39.6321 40.4966 31.9362 
100 2 38.1982 38.0129 31.9362 
101 2 41.0661 36.3571 29.5946 
102 2 42.5 38.8408 29.5946 
103 2 42.5 40.4966 31.9362 
104 2 41.0661 38.0129 31.9362 
105 2 43.9339 36.3571 29.5946 
106 2 45.3679 38.8408 29.5946 
107 2 45.3679 40.4966 31.9362 
108 2 43.9339 38.0129 31.9362 
109 2 46.8018 36.3571 29.5946 
110 2 48.2358 38.8408 29.5946 
111 2 48.2358 40.4966 31.9362 
112 2 46.8018 38.0129 31.9362 
113 2 49.6697 36.3571 29.5946 
114 2 51.1037 38.8408 29.5946 
115 2 51.1037 40.4966 31.9362 
116 2 49.6697 38.0129 31.9362 
117 2 52.5376 36.3571 29.5946 
118 2 53.9716 38.8408 29.5946 
119 2 53.9716 40.4966 31.9362 
120 2 52.5376 38.0129 31.9362 
121 2 55.4055 36.3571 29.5946 
122 2 56.8395 38.8408 29.5946 
123 2 56.8395 40.4966 31.9362 
124 2 55.4055 38.0129 31.9362 
125 2 58.2734 36.3571 29.5946 
126 2 59.7074 38.8408 29.5946 
127 2 59.7074 40.4966 31.9362 
128 2 58.2734 38.0129 31.9362 
129 2 61.1413 36.3571 29.5946 
130 2 62.5753 38.8408 29.5946 
131 2 62.5753 40.4966 31.9362 
132 2 61.1413 38.0129 31.9362 
133 2 64.0092 36.3571 29.5946 
134 2 65.4432 38.8408 29.5946 
135 2 65.4432 40.4966 31.9362 
136 2 64.0092 38.0129 31.9362 
137 2 18.1229 41.3245 29.5946 
138 2 19.5568 43.8081 29.5946 
139 2 19.5568 45.4639 31.9362 
140 2 18.1229 42.9802 31.9362 
141 2 20.9908 41.3245 29.5946 
142 2 22.4247 43.8081 29.5946 
143 2 22.4247 45.4639 31.9362 
144 2 20.9908 42.9802 31.9362 
145 2 23.8587 41.3245 29.5946 
146 2 25.2926 43.8081 29.5946 
147 2 25.2926 45.4639 31.9362 
148 2 23.8587 42.9802 31.9362 
149 2 26.7266 41.3245 29.5946 
150 2 28.1605 43.8081 29.5946 
151 2 28.1605 45.4639 31.9362 
152 2 26.7266 42.9802 31.9362 
153 2 29.5945 41.3245 29.5946 
154 2 31.0284 43.8081 29.5946 
155 2 31.0284 45.4639 31.9362 
156 2 29.5945 42.9802 31.9362 
157 2 32.4624 41.3245 29.5946 
158 2 33.8963 43.8081 29.5946 
159 2 33.8963 45.4639 31.9362 
160 2 32.4624 42.9802 31.9362 
161 2 35.3303 41.3245 29.5946 
162 2 36.7642 43.8081 29.5946 
163 2 36.7642 45.4639 31.9362 
164 2 35.3303 42.9802 31.9362 
165 2 38.1982 41.3245 29.5946 
166 2 39.6321 43.8081 29.5946 
167 2 39.6321 45.4639 31.9362 
168 2 38.1982 42.9802 31.9362 
169 2 41.0661 41.3245 29.5946 
170 2 42.5 43.8081 29.5946 
171 2 42.5 45.4639 31.9362 
172 2 41.0661 42.9802 31.9362 
173 2 43.9339 41.3245 29.5946 
174 2 45.3679 43.8081 29.5946 
175 2 45.3679 45.4639 31.9362 
176 2 43.9339 42.9802 31.9362 
177 2 46.8018 41.3245 29.5946 
178 2 48.2358 43.8081 29.5946 
179 2 48.2358 45.4639 31.9362 
180 2 46.8018 42.9802 31.9362 
181 2 49.6697 41.3245 29.5946 
182 2 51.1037 43.8081 29.5946 
183 2 51.1037 45.4639 31.9362 
184 2 49.6697 42.9802 31.9362 
185 2 52.5376 41.3245 29.5946 
186 2 53.9716 43.8081 29.5946 
187 2 53.9716 45.4639 31.9362 
188 2 52.5376 42.9802 31.9362 
189 2 55.4055 41.3245 29.5946 
190 2 56.8395 43.8081 29.5946 
191 2 56.8395 45.4639 31.9362 
192 2 55.4055 42.9802 31.9362 
193 2 58.2734 41.3245 29.5946 
194 2 59.7074 43.8081 29.5946 
195 2 59.7074 45.4639 31.9362 
196 2 58.2734 42.9802 31.9362 
197 2 61.1413 41.3245 29.5946 
198 2 62.5753 43.8081 29.5946 
199 2 62.5753 45.4639 31.9362 
200 2 61.1413 42.9802 31.9362 
201 2 64.0092 41.3245 29.5946 
202 2 65.4432 43.8081 29.5946 
203 2 65.4432 45.4639 31.9362 
204 2 64.0092 42.9802 31.9362 
205 2 18.1229 46.2918 29.5946 
206 2 19.5568 48.7755 29.5946 
207 2 19.5568 50.4312 31.9362 
208 2 18.1229 47.9476 31.9362 
209 2 20.9908 46.2918 29.5946 
210 2 22.4247 48.7755 29.5946 
211 2 22.4247 50.4312 31.9362 
212 2 20.9908 47.9476 31.9362 
213 2 23.8587 46.2918 29.5946 
214 2 25.2926 48.7755 29.5946 
215 2 25.2926 50.4312 31.9362 
216 2 23.8587 47.9476 31.9362 
217 2 26.7266 46.2918 29.5946 
218 2 28.1605 48.7755 29.5946 
219 2 28.1605 50.4312 31.9362 
220 2 26.7266 47.9476 31.9362 
221 2 29.5945 46.2918 29.5946 
222 2 31.0284 48.7755 29.5946 
223 2 31.0284 50.4312 31.9362 
224 2 29.5945 47.9476 31.9362 
225 2 32.4624 46.2918 29.5946 
226 2 33.8963 48.7755 29.5946 
227 2 33.8963 50.4312 31.9362 
228 2 32.4624 47.9476 31.9362 
229 2 35.3303 46.2918 29.5946 
230 2 36.7642 48.7755 29.5946 
231 2 36.7642 50.4312 31.9362 
232 2 35.3303 47.9476 31.9362 
233 2 38.1982 46.2918 29.5946 
234 2 39.6321 48.7755 29.5946 
235 2 39.6321 50.4312 31.9362 
236 2 38.1982 47.9476 31.9362 
237 2 41.0661 46.2918 29.5946 
238 2 42.5 48.7755 29.5946 
239 2 42.5 50.4312 31.9362 
240 2 41.0661 47.9476 31.9362 
241 2 43.9339 46.2918 29.5946 
242 2 45.3679 48.7755 29.5946 
243 2 45.3679 50.4312 31.9362 
244 2 43.9339 47.9476 31.9362 
245 2 46.8018 46.2918 29.5946 
246 2 48.2358 48.7755 29.5946 
247 2 48.2358 50.4312 31.9362 
248 2 46.8018 47.9476 31.9362 
249 2 49.6697 46.2918 29.5946 
250 2 51.1037 48.7755 29.5946 
251 2 51.1037 50.4312 31.9362 
252 2 49.6697 47.9476 31.9362 
253 2 52.5376 46.2918 29.5946 
254 2 53.9716 48.7755 29.5946 
255 2 53.9716 50.4312 31.9362 
256 2 52.5376 47.9476 31.9362 
257 2 55.4055 46.2918 29.5946 
258 2 56.8395 48.7755 29.5946 
259 2 56.8395 50.4312 31.9362 
260 2 55.4055 47.9476 31.9362 
261 2 58.2734 46.2918 29.5946 
262 2 59.7074 48.7755 29.5946 
263 2 59.7074 50.4312 31.9362 
264 2 58.2734 47.9476 31.9362 
265 2 61.1413 46.2918 29.5946 
266 2 62.5753 48.7755 29.5946 
267 2 62.5753 50.4312 31.9362 
268 2 61.1413 47.9476 31.9362 
269 2 64.0092 46.2918 29.5946 
270 2 65.4432 48.7755 29.5946 
271 2 65.4432 50.4312 31.9362 
272 2 64.0092 47.9476 31.9362 
273 2 18.1229 51.2591 29.5946 
274 2 19.5568 53.7428 29.5946 
275 2 19.5568 55.3986 31.9362 
276 2 18.1229 52.9149 31.9362 
277 2 20.9908 51.2591 29.5946 
278 2 22.4247 53.7428 29.5946 
279 2 22.4247 55.3986 31.9362 
280 2 20.9908 52.9149 31.9362 
281 2 23.8587 51.2591 29.5946 
282 2 25.2926 53.7428 29.5946 
283 2 25.2926 55.3986 31.9362 
284 2 23.8587 52.9149 31.9362 
285 2 26.7266 51.2591 29.5946 
286 2 28.1605 53.7428 29.5946 
287 2 28.1605 55.3986 31.9362 
288 2 26.7266 52.9149 31.9362 
289 2 29.5945 51.2591 29.5946 
290 2 31.0284 53.7428 29.5946 
291 2 31.0284 55.3986 31.9362 
292 2 29.5945 52.9149 31.9362 
293 2 32.4624 51.2591 29.5946 
294 2 33.8963 53.7428 29.5946 
295 2 33.8963 55.3986 31.9362 
296 2 32.4624 52.9149 31.9362 
297 2 35.3303 51.2591 29.5946 
298 2 36.7642 53.7428 29.5946 
299 2 36.7642 55.3986 31.9362 
300 2 35.3303 52.9149 31.9362 
301 2 38.1982 51.2591 29.5946 
302 2 39.6321 53.7428 29.5946 
303 2 39.6321 55.3986 31.9362 
304 2 38.1982 52.9149 31.9362 
305 2 41.0661 51.2591 29.5946 
306 2 42.5 53.7428 29.5946 
307 2 42.5 55.3986 31.9362 
308 2 41.0661 52.9149 31.9362 
309 2 43.9339 51.2591 29.5946 
310 2 45.3679 53.7428 29.5946 
311 2 45.3679 55.3986 31.9362 
312 2 43.9339 52.9149 31.9362 
313 2 46.8018 51.2591 29.5946 
314 2 48.2358 53.7428 29.5946 
315 2 48.2358 55.3986 31.9362 
316 2 46.8018 52.9149 31.9362 
317 2 49.6697 51.2591 29.5946 
318 2 51.1037 53.7428 29.5946 
319 2 51.1037 55.3986 31.9362 
320 2 49.6697 52.9149 31.9362 
321 2 52.5376 51.2591 29.5946 
322 2 53.9716 53.7428 29.5946 
323 2 53.9716 55.3986 31.9362 
324 2 52.5376 52.9149 31.9362 
325 2 55.4055 51.2591 29.5946 
326 2 56.8395 53.7428 29.5946 
327 2 56.8395 55.3986 31.9362 
328 2 55.4055 52.9149 31.9362 
329 2 58.2734 51.2591 29.5946 
330 2 59.7074 53.7428 29.5946 
331 2 59.7074 55.3986 31.9362 
332 2 58.2734 52.9149 31.9362 
333 2 61.1413 51.2591 29.5946 
334 2 62.5753 53.7428 29.5946 
335 2 62.5753 55.3986 31.9362 
336 2 61.1413 52.9149 31.9362 
337 2 64.0092 51.2591 29.5946 
338 2 65.4432 53.7428 29.5946 
339 2 65.4432 55.3986 31.9362 
340 2 64.0092 52.9149 31.9362 
341 2 18.1229 56.2265 29.5946 
342 2 19.5568 58.7101 29.5946 
343 2 19.5568 60.3659 31.9362 
344 2 18.1229 57.8823 31.9362 
345 2 20.9908 56.2265 29.5946 
346 2 22.4247 58.7101 29.5946 
347 2 22.4247 60.3659 31.9362 
348 2 20.9908 57.8823 31.9362 
349 2 23.8587 56.2265 29.5946 
350 2 25.2926 58.7101 29.5946 
351 2 25.2926 60.3659 31.9362 
352 2 23.8587 57.8823 31.9362 
353 2 26.7266 56.2265 29.5946 
354 2 28.1605 58.7101 29.5946 
355 2 28.1605 60.3659 31.9362 
356 2 26.7266 57.8823 31.9362 
357 2 29.5945 56.2265 29.5946 
358 2 31.0284 58.7101 29.5946 
359 2 31.0284 60.3659 31.9362 
360 2 29.5945 57.8823 31.9362 
361 2 32.4624 56.2265 29.5946 
362 2 33.8963 58.7101 29.5946 
363 2 33.8963 60.3659 31.9362 
364 2 32.4624 57.8823 31.9362 
365 2 35.3303 56.2265 29.5946 
366 2 36.7642 58.7101 29.5946 
367 2 36.7642 60.3659 31.9362 
368 2 35.3303 57.8823 31.9362 
369 2 38.1982 56.2265 29.5946 
370 2 39.6321 58.7101 29.5946 
371 2 39.6321 60.3659 31.9362 
372 2 38.1982 57.8823 31.9362 
373 2 41.0661 56.2265 29.5946 
374 2 42.5 58.7101 29.5946 
375 2 42.5 60.3659 31.9362 
376 2 41.0661 57.8823 31.9362 
377 2 43.9339 56.2265 29.5946 
378 2 45.3679 58.7101 29.5946 
379 2 45.3679 60.3659 31.9362 
380 2 43.9339 57.8823 31.9362 
381 2 46.8018 56.2265 29.5946 
382 2 48.2358 58.7101 29.5946 
383 2 48.2358 60.3659 31.9362 
384 2 46.8018 57.8823 31.9362 
385 2 49.6697 56.2265 29.5946 
386 2 51.1037 58.7101 29.5946 
387 2 51.1037 60.3659 31.9362 
388 2 49.6697 57.8823 31.9362 
389 2 52.5376 56.2265 29.5946 
390 2 53.9716 58.7101 29.5946 
391 2 53.9716 60.3659 31.9362 
392 2 52.5376 57.8823 31.9362 
393 2 55.4055 56.2265 29.5946 
394 2 56.8395 58.7101 29.5946 
395 2 56.8395 60.3659 31.9362 
396 2 55.4055 57.8823 31.9362 
397 2 58.2734 56.2265 29.5946 
398 2 59.7074 58.7101 29.5946 
399 2 59.7074 60.3659 31.9362 
400 2 58.2734 57.8823 31.9362 
401 2 61.1413 56.2265 29.5946 
402 2 62.5753 58.7101 29.5946 
403 2 62.5753 60.3659 31.9362 
404 2 61.1413 57.8823 31.9362 
405 2 64.0092 56.2265 29.5946 
406 2 65.4432 58.7101 29.5946 
407 2 65.4432 60.3659 31.9362 
408 2 64.0092 57.8823 31.9362 
409 2 18.1229 61.1938 29.5946 
410 2 19.5568 63.6775 29.5946 
411 2 19.5568 65.3333 31.9362 
412 2 18.1229 62.8496 31.9362 
413 2 20.9908 61.1938 29.5946 
414 2 22.4247 63.6775 29.5946 
415 2 22.4247 65.3333 31.9362 
416 2 20.9908 62.8496 31.9362 
417 2 23.8587 61.1938 29.5946 
418 2 25.2926 63.6775 29.5946 
419 2 25.2926 65.3333 31.9362 
420 2 23.8587 62.8496 31.9362 
421 2 26.7266 61.1938 29.5946 
422 2 28.1605 63.6775 29.5946 
423 2 28.1605 65.3333 31.9362 
424 2 26.7266 62.8496 31.9362 
425 2 29.5945 61.1938 29.5946 
426 2 31.0284 63.6775 29.5946 
427 2 31.0284 65.3333 31.9362 
428 2 29.5945 62.8496 31.9362 
429 2 32.4624 61.1938 29.5946 
430 2 33.8963 63.6775 29.5946 
431 2 33.8963 65.3333 31.9362 
432 2 32.4624 62.8496 31.9362 
433 2 35.3303 61.1938 29.5946 
434 2 36.7642 63.6775 29.5946 
435 2 36.7642 65.3333 31.9362 
436 2 35.3303 62.8496 31.9362 
437 2 38.1982 61.1938 29.5946 
438 2 39.6321 63.6775 29.5946 
439 2 39.6321 65.3333 31.9362 
440 2 38.1982 62.8496 31.9362 
441 2 41.0661 61.1938 29.5946 
442 2 42.5 63.6775 29.5946 
443 2 42.5 65.3333 31.9362 
444 2 41.0661 62.8496 31.9362 
445 2 43.9339 61.1938 29.5946 
446 2 45.3679 63.6775 29.5946 
447 2 45.3679 65.3333 31.9362 
448 2 43.9339 62.8496 31.9362 
449 2 46.8018 61.1938 29.5946 
450 2 48.2358 63.6775 29.5946 
451 2 48.2358 65.3333 31.9362 
452 2 46.8018 62.8496 31.9362 
453 2 49.6697 61.1938 29.5946 
454 2 51.1037 63.6775 29.5946 
455 2 51.1037 65.3333 31.9362 
456 2 49.6697 62.8496 31.9362 
457 2 52.5376 61.1938 29.5946 
458 2 53.9716 63.6775 29.5946 
459 2 53.9716 65.3333 31.9362 
460 2 52.5376 62.8496 31.9362 
461 2 55.4055 61.1938 29.5946 
462 2 56.8395 63.6775 29.5946 
463 2 56.8395 65.3333 31.9362 
464 2 55.4055 62.8496 31.9362 
465 2 58.2734 61.1938 29.5946 
466 2 59.7074 63.6775 29.5946 
467 2 59.7074 65.3333 31.9362 
468 2 58.2734 62.8496 31.9362 
469 2 61.1413 61.1938 29.5946 
470 2 62.5753 63.6775 29.5946 
471 2 62.5753 65.3333 31.9362 
472 2 61.1413 62.8496 31.9362 
473 2 64.0092 61.1938 29.5946 
474 2 65.4432 63.6775 29.5946 
475 2 65.4432 65.3333 31.9362 
476 2 64.0092 62.8496 31.9362 
477 2 18.1229 66.1612 29.5946 
478 2 19.5568 68.6448 29.5946 
479 2 19.5568 70.3006 31.9362 
480 2 18.1229 67.8169 31.9362 
481 2 20.9908 66.1612 29.5946 
482 2 22.4247 68.6448 29.5946 
483 2 22.4247 70.3006 31.9362 
484 2 20.9908 67.8169 31.9362 
485 2 23.8587 66.1612 29.5946 
486 2 25.2926 68.6448 29.5946 
487 2 25.2926 70.3006 31.9362 
488 2 23.8587 67.8169 31.9362 
489 2 26.7266 66.1612 29.5946 
490 2 28.1605 68.6448 29.5946 
491 2 28.1605 70.3006 31.9362 
492 2 26.7266 67.8169 31.9362 
493 2 29.5945 66.1612 29.5946 
494 2 31.0284 68.6448 29.5946 
495 2 31.0284 70.3006 31.9362 
496 2 29.5945 67.8169 31.9362 
497 2 32.4624 66.1612 29.5946 
498 2 33.8963 68.6448 29.5946 
499 2 33.8963 70.3006 31.9362 
500 2 32.4624 67.8169 31.9362 
501 2 35.3303 66.1612 29.5946 
502 2 36.7642 68.6448 29.5946 
503 2 36.7642 70.3006 31.9362 
504 2 35.3303 67.8169 31.9362 
505 2 38.1982 66.1612 29.5946 
506 2 39.6321 68.6448 29.5946 
507 2 39.6321 70.3006 31.9362 
508 2 38.1982 67.8169 31.9362 
509 2 41.0661 66.1612 29.5946 
510 2 42.5 68.6448 29.5946 
511 2 42.5 70.3006 31.9362 
512 2 41.0661 67.8169 31.9362 
513 2 43.9339 66.1612 29.5946 
514 2 45.3679 68.6448 29.5946 
515 2 45.3679 70.3006 31.9362 
516 2 43.9339 67.8169 31.9362 
517 2 46.8018 66.1612 29.5946 
518 2 48.2358 68.6448 29.5946 
519 2 48.2358 70.3006 31.9362 
520 2 46.8018 67.8169 31.9362 
521 2 49.6697 66.1612 29.5946 
522 2 51.1037 68.6448 29.5946 
523 2 51.1037 70.3006 31.9362 
524 2 49.6697 67.8169 31.9362 
525 2 52.5376 66.1612 29.5946 
526 2 53.9716 68.6448 29.5946 
527 2 53.9716 70.3006 31.9362 
528 2 52.5376 67.8169 31.9362 
529 2 55.4055 66.1612 29.5946 
530 2 56.8395 68.6448 29.5946 
531 2 56.8395 70.3006 31.9362 
532 2 55.4055 67.8169 31.9362 
533 2 58.2734 66.1612 29.5946 
534 2 59.7074 68.6448 29.5946 
535 2 59.7074 70.3006 31.9362 
536 2 58.2734 67.8169 31.9362 
537 2 61.1413 66.1612 29.5946 
538 2 62.5753 68.6448 29.5946 
539 2 62.5753 70.3006 31.9362 
540 2 61.1413 67.8169 31.9362 
541 2 64.0092 66.1612 29.5946 
542 2 65.4432 68.6448 29.5946 
543 2 65.4432 70.3006 31.9362 
544 2 64.0092 67.8169 31.9362 
545 2 18.1229 71.1285 29.5946 
546 2 19.5568 73.6122 29.5946 
547 2 19.5568 75.2679 31.9362 
548 2 18.1229 72.7843 31.9362 
549 2 20.9908 71.1285 29.5946 
550 2 22.4247 73.6122 29.5946 
551 2 22.4247 75.2679 31.9362 
552 2 20.9908 72.7843 31.9362 
553 2 23.8587 71.1285 29.5946 
554 2 25.2926 73.6122 29.5946 
555 2 25.2926 75.2679 31.9362 
556 2 23.8587 72.7843 31.9362 
557 2 26.7266 71.1285 29.5946 
558 2 28.1605 73.6122 29.5946 
559 2 28.1605 75.2679 31.9362 
560 2 26.7266 72.7843 31.9362 
561 2 29.5945 71.1285 29.5946 
562 2 31.0284 73.6122 29.5946 
563 2 31.0284 75.2679 31.9362 
564 2 29.5945 72.7843 31.9362 
565 2 32.4624 71.1285 29.5946 
566 2 33.8963 73.6122 29.5946 
567 2 33.8963 75.2679 31.9362 
568 2 32.4624 72.7843 31.9362 
569 2 35.3303 71.1285 29.5946 
570 2 36.7642 73.6122 29.5946 
571 2 36.7642 75.2679 31.9362 
572 2 35.3303 72.7843 31.9362 
573 2 38.1982 71.1285 29.5946 
574 2 39.6321 73.6122 29.5946 
575 2 39.6321 75.2679 31.9362 
576 2 38.1982 72.7843 31.9362 
577 2 41.0661 71.1285 29.5946 
578 2 42.5 73.6122 29.5946 
579 2 42.5 75.2679 31.9362 
580 2 41.0661 72.7843 31.9362 
581 2 43.9339 71.1285 29.5946 
582 2 45.3679 73.6122 29.5946 
583 2 45.3679 75.2679 31.9362 
584 2 43.9339 72.7843 31.9362 
585 2 46.8018 71.1285 29.5946 
586 2 48.2358 73.6122 29.5946 
587 2 48.2358 75.2679 31.9362 
588 2 46.8018 72.7843 31.9362 
589 2 49.6697 71.1285 29.5946 
590 2 51.1037 73.6122 29.5946 
591 2 51.1037 75.2679 31.9362 
592 2 49.6697 72.7843 31.9362 
593 2 52.5376 71.1285 29.5946 
594 2 53.9716 73.6122 29.5946 
595 2 53.9716 75.2679 31.9362 
596 2 52.5376 72.7843 31.9362 
597 2 55.4055 71.1285 29.5946 
598 2 56.8395 73.6122 29.5946 
599 2 56.8395 75.2679 31.9362 
600 2 55.4055 72.7843 31.9362 
601 2 58.2734 71.1285 29.5946 
602 2 59.7074 73.6122 29.5946 
603 2 59.7074 75.2679 31.9362 
604 2 58.2734 72.7843 31.9362 
605 2 61.1413 71.1285 29.5946 
606 2 62.5753 73.6122 29.5946 
607 2 62.5753 75.2679 31.9362 
608 2 61.1413 72.7843 31.9362 
609 2 64.0092 71.1285 29.5946 
610 2 65.4432 73.6122 29.5946 
611 2 65.4432 75.2679 31.9362 
612 2 64.0092 72.7843 31.9362 
613 2 18.1229 76.0958 29.5946 
614 2 19.5568 78.5795 29.5946 
615 2 19.5568 80.2353 31.9362 
616 2 18.1229 77.7516 31.9362 
617 2 20.9908 76.0958 29.5946 
618 2 22.4247 78.5795 29.5946 
619 2 22.4247 80.2353 31.9362 
620 2 20.9908 77.7516 31.9362 
621 2 23.8587 76.0958 29.5946 
622 2 25.2926 78.5795 29.5946 
623 2 25.2926 80.2353 31.9362 
624 2 23.8587 77.7516 31.9362 
625 2 26.7266 76.0958 29.5946 
626 2 28.1605 78.5795 29.5946 
627 2 28.1605 80.2353 31.9362 
628 2 26.7266 77.7516 31.9362 
629 2 29.5945 76.0958 29.5946 
630 2 31.0284 78.5795 29.5946 
631 2 31.0284 80.2353 31.9362 
632 2 29.5945 77.7516 31.9362 
633 2 32.4624 76.0958 29.5946 
634 2 33.8963 78.5795 29.5946 
635 2 33.8963 80.2353 31.9362 
636 2 32.4624 77.7516 31.9362 
637 2 35.3303 76.0958 29.5946 
638 2 36.7642 78.5795 29.5946 
639 2 36.7642 80.2353 31.9362 
640 2 35.3303 77.7516 31.9362 
641 2 38.1982 76.0958 29.5946 
642 2 39.6321 78.5795 29.5946 
643 2 39.6321 80.2353 31.9362 
644 2 38.1982 77.7516 31.9362 
645 2 41.0661 76.0958 29.5946 
646 2 42.5 78.5795 29.5946 
647 2 42.5 80.2353 31.9362 
648 2 41.0661 77.7516 31.9362 
649 2 43.9339 76.0958 29.5946 
650 2 45.3679 78.5795 29.5946 
651 2 45.3679 80.2353 31.9362 
652 2 43.9339 77.7516 31.9362 
653 2 46.8018 76.0958 29.5946 
654 2 48.2358 78.5795 29.5946 
655 2 48.2358 80.2353 31.9362 
656 2 46.8018 77.7516 31.9362 
657 2 49.6697 76.0958 29.5946 
658 2 51.1037 78.5795 29.5946 
659 2 51.1037 80.2353 31.9362 
660 2 49.6697 77.7516 31.9362 
661 2 52.5376 76.0958 29.5946 
662 2 53.9716 78.5795 29.5946 
663 2 53.9716 80.2353 31.9362 
664 2 52.5376 77.7516 31.9362 
665 2 55.4055 76.0958 29.5946 
666 2 56.8395 78.5795 29.5946 
667 2 56.8395 80.2353 31.9362 
668 2 55.4055 77.7516 31.9362 
669 2 58.2734 76.0958 29.5946 
670 2 59.7074 78.5795 29.5946 
671 2 59.7074 80.2353 31.9362 
672 2 58.2734 77.7516 31.9362 
673 2 61.1413 76.0958 29.5946 
674 2 62.5753 78.5795 29.5946 
675 2 62.5753 80.2353 31.9362 
676 2 61.1413 77.7516 31.9362 
677 2 64.0092 76.0958 29.5946 
678 2 65.4432 78.5795 29.5946 
679 2 65.4432 80.2353 31.9362 
680 2 64.0092 77.7516 31.9362 
681 2 18.1229 81.0632 29.5946 
682 2 19.5568 83.5468 29.5946 
683 2 19.5568 85.2026 31.9362 
684 2 18.1229 82.7189 31.9362 
685 2 20.9908 81.0632 29.5946 
686 2 22.4247 83.5468 29.5946 
687 2 22.4247 85.2026 31.9362 
688 2 20.9908 82.7189 31.9362 
689 2 23.8587 81.0632 29.5946 
690 2 25.2926 83.5468 29.5946 
691 2 25.2926 85.2026 31.9362 
692 2 23.8587 82.7189 31.9362 
693 2 26.7266 81.0632 29.5946 
694 2 28.1605 83.5468 29.5946 
695 2 28.1605 85.2026 31.9362 
696 2 26.7266 82.7189 31.9362 
697 2 29.5945 81.0632 29.5946 
698 2 31.0284 83.5468 29.5946 
699 2 31.0284 85.2026 31.9362 
700 2 29.5945 82.7189 31.9362 
701 2 32.4624 81.0632 29.5946 
702 2 33.8963 83.5468 29.5946 
703 2 33.8963 85.2026 31.9362 
704 2 32.4624 82.7189 31.9362 
705 2 35.3303 81.0632 29.5946 
706 2 36.7642 83.5468 29.5946 
707 2 36.7642 85.2026 31.9362 
708 2 35.3303 82.7189 31.9362 
709 2 38.1982 81.0632 29.5946 
710 2 39.6321 83.5468 29.5946 
711 2 39.6321 85.2026 31.9362 
712 2 38.1982 82.7189 31.9362 
713 2 41.0661 81.0632 29.5946 
714 2 42.5 83.5468 29.5946 
715 2 42.5 85.2026 31.9362 
716 2 41.0661 82.7189 31.9362 
717 2 43.9339 81.0632 29.5946 
718 2 45.3679 83.5468 29.5946 
719 2 45.3679 85.2026 31.9362 
720 2 43.9339 82.7189 31.9362 
721 2 46.8018 81.0632 29.5946 
722 2 48.2358 83.5468 29.5946 
723 2 48.2358 85.2026 31.9362 
724 2 46.8018 82.7189 31.9362 
725 2 49.6697 81.0632 29.5946 
726 2 51.1037 83.5468 29.5946 
727 2 51.1037 85.2026 31.9362 
728 2 49.6697 82.7189 31.9362 
729 2 52.5376 81.0632 29.5946 
730 2 53.9716 83.5468 29.5946 
731 2 53.9716 85.2026 31.9362 
732 2 52.5376 82.7189 31.9362 
733 2 55.4055 81.0632 29.5946 
734 2 56.8395 83.5468 29.5946 
735 2 56.8395 85.2026 31.9362 
736 2 55.4055 82.7189 31.9362 
737 2 58.2734 81.0632 29.5946 
738 2 59.7074 83.5468 29.5946 
739 2 59.7074 85.2026 31.9362 
740 2 58.2734 82.7189 31.9362 
741 2 61.1413 81.0632 29.5946 
742 2 62.5753 83.5468 29.5946 
743 2 62.5753 85.2026 31.9362 
744 2 61.1413 82.7189 31.9362 
745 2 64.0092 81.0632 29.5946 
746 2 65.4432 83.5468 29.5946 
747 2 65.4432 85.2026 31.9362 
748 2 64.0092 82.7189 31.9362 
749 2 18.1229 86.0305 29.5946 
750 2 19.5568 88.5142 29.5946 
751 2 19.5568 90.17 31.9362 
752 2 18.1229 87.6863 31.9362 
753 2 20.9908 86.0305 29.5946 
754 2 22.4247 88.5142 29.5946 
755 2 22.4247 90.17 31.9362 
756 2 20.9908 87.6863 31.9362 
757 2 23.8587 86.0305 29.5946 
758 2 25.2926 88.5142 29.5946 
759 2 25.2926 90.17 31.9362 
760 2 23.8587 87.6863 31.9362 
761 2 26.7266 86.0305 29.5946 
762 2 28.1605 88.5142 29.5946 
763 2 28.1605 90.17 31.9362 
764 2 26.7266 87.6863 31.9362 
765 2 29.5945 86.0305 29.5946 
766 2 31.0284 88.5142 29.5946 
767 2 31.0284 90.17 31.9362 
768 2 29.5945 87.6863 31.9362 
769 2 32.4624 86.0305 29.5946 
770 2 33.8963 88.5142 29.5946 
771 2 33.8963 90.17 31.9362 
772 2 32.4624 87.6863 31.9362 
773 2 35.3303 86.0305 29.5946 
774 2 36.7642 88.5142 29.5946 
775 2 36.7642 90.17 31.9362 
776 2 35.3303 87.6863 31.9362 
777 2 38.1982 86.0305 29.5946 
778 2 39.6321 88.5142 29.5946 
779 2 39.6321 90.17 31.9362 
780 2 38.1982 87.6863 31.9362 
781 2 41.0661 86.0305 29.5946 
782 2 42.5 88.5142 29.5946 
783 2 42.5 90.17 31.9362 
784 2 41.0661 87.6863 31.9362 
785 2 43.9339 86.0305 29.5946 
786 2 45.3679 88.5142 29.5946 
787 2 45.3679 90.17 31.9362 
788 2 43.9339 87.6863 31.9362 
789 2 46.8018 86.0305 29.5946 
790 2 48.2358 88.5142 29.5946 
791 2 48.2358 90.17 31.9362 
792 2 46.8018 87.6863 31.9362 
793 2 49.6697 86.0305 29.5946 
794 2 51.1037 88.5142 29.5946 
795 2 51.1037 90.17 31.9362 
796 2 49.6697 87.6863 31.9362 
797 2 52.5376 86.0305 29.5946 
798 2 53.9716 88.5142 29.5946 
799 2 53.9716 90.17 31.9362 
800 2 52.5376 87.6863 31.9362 
801 2 55.4055 86.0305 29.5946 
802 2 56.8395 88.5142 29.5946 
803 2 56.8395 90.17 31.9362 
804 2 55.4055 87.6863 31.9362 
805 2 58.2734 86.0305 29.5946 
806 2 59.7074 88.5142 29.5946 
807 2 59.7074 90.17 31.9362 
808 2 58.2734 87.6863 31.9362 
809 2 61.1413 86.0305 29.5946 
810 2 62.5753 88.5142 29.5946 
811 2 62.5753 90.17 31.9362 
812 2 61.1413 87.6863 31.9362 
813 2 64.0092 86.0305 29.5946 
814 2 65.4432 88.5142 29.5946 
815 2 65.4432 90.17 31.9362 
816 2 64.0092 87.6863 31.9362 
817 2 18.1229 90.9978 29.5946 
818 2 19.5568 93.4815 29.5946 
819 2 19.5568 95.1373 31.9362 
820 2 18.1229 92.6536 31.9362 
821 2 20.9908 90.9978 29.5946 
822 2 22.4247 93.4815 29.5946 
823 2 22.4247 95.1373 31.9362 
824 2 20.9908 92.6536 31.9362 
825 2 23.8587 90.9978 29.5946 
826 2 25.2926 93.4815 29.5946 
827 2 25.2926 95.1373 31.9362 
828 2 23.8587 92.6536 31.9362 
829 2 26.7266 90.9978 29.5946 
830 2 28.1605 93.4815 29.5946 
831 2 28.1605 95.1373 31.9362 
832 2 26.7266 92.6536 31.9362 
833 2 29.5945 90.9978 29.5946 
834 2 31.0284 93.4815 29.5946 
835 2 31.0284 95.1373 31.9362 
836 2 29.5945 92.6536 31.9362 
837 2 32.4624 90.9978 29.5946 
838 2 33.8963 93.4815 29.5946 
839 2 33.8963 95.1373 31.9362 
840 2 32.4624 92.6536 31.9362 
841 2 35.3303 90.9978 29.5946 
842 2 36.7642 93.4815 29.5946 
843 2 36.7642 95.1373 31.9362 
844 2 35.3303 92.6536 31.9362 
845 2 38.1982 90.9978 29.5946 
846 2 39.6321 93.4815 29.5946 
847 2 39.6321 95.1373 31.9362 
848 2 38.1982 92.6536 31.9362 
849 2 41.0661 90.9978 29.5946 
850 2 42.5 93.4815 29.5946 
851 2 42.5 95.1373 31.9362 
852 2 41.0661 92.6536 31.9362 
853 2 43.9339 90.9978 29.5946 
854 2 45.3679 93.4815 29.5946 
855 2 45.3679 95.1373 31.9362 
856 2 43.9339 92.6536 31.9362 
857 2 46.8018 90.9978 29.5946 
858 2 48.2358 93.4815 29.5946 
859 2 48.2358 95.1373 31.9362 
860 2 46.8018 92.6536 31.9362 
861 2 49.6697 90.9978 29.5946 
862 2 51.1037 93.4815 29.5946 
863 2 51.1037 95.1373 31.9362 
864 2 49.6697 92.6536 31.9362 
865 2 52.5376 90.9978 29.5946 
866 2 53.9716 93.4815 29.5946 
867 2 53.9716 95.1373 31.9362 
868 2 52.5376 92.6536 31.9362 
869 2 55.4055 90.9978 29.5946 
870 2 56.8395 93.4815 29.5946 
871 2 56.8395 95.1373 31.9362 
872 2 55.4055 92.6536 31.9362 
873 2 58.2734 90.9978 29.5946 
874 2 59.7074 93.4815 29.5946 
875 2 59.7074 95.1373 31.9362 
876 2 58.2734 92.6536 31.9362 
877 2 61.1413 90.9978 29.5946 
878 2 62.5753 93.4815 29.5946 
879 2 62.5753 95.1373 31.9362 
880 2 61.1413 92.6536 31.9362 
881 2 64.0092 90.9978 29.5946 
882 2 65.4432 93.4815 29.5946 
883 2 65.4432 95.1373 31.9362 
884 2 64.0092 92.6536 31.9362 
885 2 18.1229 95.9652 29.5946 
886 2 19.5568 98.4489 29.5946 
887 2 19.5568 100.105 31.9362 
888 2 18.1229 97.621 31.9362 
889 2 20.9908 95.9652 29.5946 
890 2 22.4247 98.4489 29.5946 
891 2 22.4247 100.105 31.9362 
892 2 20.9908 97.621 31.9362 
893 2 23.8587 95.9652 29.5946 
894 2 25.2926 98.4489 29.5946 
895 2 25.2926 100.105 31.9362 
896 2 23.8587 97.621 31.9362 
897 2 26.7266 95.9652 29.5946 
898 2 28.1605 98.4489 29.5946 
899 2 28.1605 100.105 31.9362 
900 2 26.7266 97.621 31.9362 
901 2 29.5945 95.9652 29.5946 
902 2 31.0284 98.4489 29.5946 
903 2 31.0284 100.105 31.9362 
904 2 29.5945 97.621 31.9362 
905 2 32.4624 95.9652 29.5946 
906 2 33.8963 98.4489 29.5946 
907 2 33.8963 100.105 31.9362 
908 2 32.4624 97.621 31.9362 
909 2 35.3303 95.9652 29.5946 
910 2 36.7642 98.4489 29.5946 
911 2 36.7642 100.105 31.9362 
912 2 35.3303 97.621 31.9362 
913 2 38.1982 95.9652 29.5946 
914 2 39.6321 98.4489 29.5946 
915 2 39.6321 100.105 31.9362 
916 2 38.1982 97.621 31.9362 
917 2 41.0661 95.9652 29.5946 
918 2 42.5 98.4489 29.5946 
919 2 42.5 100.105 31.9362 
920 2 41.0661 97.621 31.9362 
921 2 43.9339 95.9652 29.5946 
922 2 45.3679 98.4489 29.5946 
923 2 45.3679 100.105 31.9362 
924 2 43.9339 97.621 31.9362 
925 2 46.8018 95.9652 29.5946 
926 2 48.2358 98.4489 29.5946 
927 2 48.2358 100.105 31.9362 
928 2 46.8018 97.621 31.9362 
929 2 49.6697 95.9652 29.5946 
930 2 51.1037 98.4489 29.5946 
931 2 51.1037 100.105 31.9362 
932 2 49.6697 97.621 31.9362 
933 2 52.5376 95.9652 29.5946 
934 2 53.9716 98.4489 29.5946 
935 2 53.9716 100.105 31.9362 
936 2 52.5376 97.621 31.9362 
937 2 55.4055 95.9652 29.5946 
938 2 56.8395 98.4489 29.5946 
939 2 56.8395 100.105 31.9362 
940 2 55.4055 97.621 31.9362 
941 2 58.2734 95.9652 29.5946 
942 2 59.7074 98.4489 29.5946 
943 2 59.7074 100.105 31.9362 
944 2 58.2734 97.621 31.9362 
945 2 61.1413 95.9652 29.5946 
946 2 62.5753 98.4489 29.5946 
947 2 62.5753 100.105 31.9362 
948 2 61.1413 97.621 31.9362 
949 2 64.0092 95.9652 29.5946 
950 2 65.4432 98.4489 29.5946 
951 2 65.4432 100.105 31.9362 
952 2 64.0092 97.621 31.9362 
953 2 18.1229 100.933 29.5946 
954 2 19.5568 103.416 29.5946 
955 2 19.5568 105.072 31.9362 
956 2 18.1229 102.588 31.9362 
957 2 20.9908 100.933 29.5946 
958 2 22.4247 103.416 29.5946 
959 2 22.4247 105.072 31.9362 
960 2 20.9908 102.588 31.9362 
961 2 23.8587 100.933 29.5946 
962 2 25.2926 103.416 29.5946 
963 2 25.2926 105.072 31.9362 
964 2 23.8587 102.588 31.9362 
965 2 26.7266 100.933 29.5946 
966 2 28.1605 103.416 29.5946 
967 2 28.1605 105.072 31.9362 