ITEM: TIMESTEP
60
ITEM: NUMBER OF ATOMS
9826
ITEM: BOX BOUNDS pp pp pp
1.2313942709061100e+01 7.2686057290938592e+01
1.2313942709061100e+01 7.2686057290938592e+01
1.2313942709061100e+01 7.2686057290938592e+01
ITEM: ATOMS id type xu yu zu 
1 1 12.3139 12.3139 12.3139 
2 1 14.0896 14.0896 14.0896 
3 1 15.8652 12.3139 12.3139 
4 1 17.6409 14.0896 14.0896 
5 1 19.4165 12.3139 12.3139 
6 1 21.1922 14.0896 14.0896 
7 1 22.9678 12.3139 12.3139 
8 1 24.7435 14.0896 14.0896 
9 1 26.5191 12.3139 12.3139 
10 1 28.2948 14.0896 14.0896 
11 1 30.0704 12.3139 12.3139 
12 1 31.8461 14.0896 14.0896 
13 1 33.6217 12.3139 12.3139 
14 1 35.3974 14.0896 14.0896 
15 1 37.173 12.3139 12.3139 
16 1 38.9487 14.0896 14.0896 
17 1 40.7243 12.3139 12.3139 
18 1 42.5 14.0896 14.0896 
19 1 44.2757 12.3139 12.3139 
20 1 46.0513 14.0896 14.0896 
21 1 47.827 12.3139 12.3139 
22 1 49.6026 14.0896 14.0896 
23 1 51.3783 12.3139 12.3139 
24 1 53.1539 14.0896 14.0896 
25 1 54.9296 12.3139 12.3139 
26 1 56.7052 14.0896 14.0896 
27 1 58.4809 12.3139 12.3139 
28 1 60.2565 14.0896 14.0896 
29 1 62.0322 12.3139 12.3139 
30 1 63.8078 14.0896 14.0896 
31 1 65.5835 12.3139 12.3139 
32 1 67.3591 14.0896 14.0896 
33 1 69.1348 12.3139 12.3139 
34 1 70.9104 14.0896 14.0896 
35 1 12.3139 15.8652 12.3139 
36 1 14.0896 17.6409 14.0896 
37 1 15.8652 15.8652 12.3139 
38 1 17.6409 17.6409 14.0896 
39 1 19.4165 15.8652 12.3139 
40 1 21.1922 17.6409 14.0896 
41 1 22.9678 15.8652 12.3139 
42 1 24.7435 17.6409 14.0896 
43 1 26.5191 15.8652 12.3139 
44 1 28.2948 17.6409 14.0896 
45 1 30.0704 15.8652 12.3139 
46 1 31.8461 17.6409 14.0896 
47 1 33.6217 15.8652 12.3139 
48 1 35.3974 17.6409 14.0896 
49 1 37.173 15.8652 12.3139 
50 1 38.9487 17.6409 14.0896 
51 1 40.7243 15.8652 12.3139 
52 1 42.5 17.6409 14.0896 
53 1 44.2757 15.8652 12.3139 
54 1 46.0513 17.6409 14.0896 
55 1 47.827 15.8652 12.3139 
56 1 49.6026 17.6409 14.0896 
57 1 51.3783 15.8652 12.3139 
58 1 53.1539 17.6409 14.0896 
59 1 54.9296 15.8652 12.3139 
60 1 56.7052 17.6409 14.0896 
61 1 58.4809 15.8652 12.3139 
62 1 60.2565 17.6409 14.0896 
63 1 62.0322 15.8652 12.3139 
64 1 63.8078 17.6409 14.0896 
65 1 65.5835 15.8652 12.3139 
66 1 67.3591 17.6409 14.0896 
67 1 69.1348 15.8652 12.3139 
68 1 70.9104 17.6409 14.0896 
69 1 12.3139 19.4165 12.3139 
70 1 14.0896 21.1922 14.0896 
71 1 15.8652 19.4165 12.3139 
72 1 17.6409 21.1922 14.0896 
73 1 19.4165 19.4165 12.3139 
74 1 21.1922 21.1922 14.0896 
75 1 22.9678 19.4165 12.3139 
76 1 24.7435 21.1922 14.0896 
77 1 26.5191 19.4165 12.3139 
78 1 28.2948 21.1922 14.0896 
79 1 30.0704 19.4165 12.3139 
80 1 31.8461 21.1922 14.0896 
81 1 33.6217 19.4165 12.3139 
82 1 35.3974 21.1922 14.0896 
83 1 37.173 19.4165 12.3139 
84 1 38.9487 21.1922 14.0896 
85 1 40.7243 19.4165 12.3139 
86 1 42.5 21.1922 14.0896 
87 1 44.2757 19.4165 12.3139 
88 1 46.0513 21.1922 14.0896 
89 1 47.827 19.4165 12.3139 
90 1 49.6026 21.1922 14.0896 
91 1 51.3783 19.4165 12.3139 
92 1 53.1539 21.1922 14.0896 
93 1 54.9296 19.4165 12.3139 
94 1 56.7052 21.1922 14.0896 
95 1 58.4809 19.4165 12.3139 
96 1 60.2565 21.1922 14.0896 
97 1 62.0322 19.4165 12.3139 
98 1 63.8078 21.1922 14.0896 
99 1 65.5835 19.4165 12.3139 
100 1 67.3591 21.1922 14.0896 
101 1 69.1348 19.4165 12.3139 
102 1 70.9104 21.1922 14.0896 
103 1 12.3139 22.9678 12.3139 
104 1 14.0896 24.7435 14.0896 
105 1 15.8652 22.9678 12.3139 
106 1 17.6409 24.7435 14.0896 
107 1 19.4165 22.9678 12.3139 
108 1 21.1922 24.7435 14.0896 
109 1 22.9678 22.9678 12.3139 
110 1 24.7435 24.7435 14.0896 
111 1 26.5191 22.9678 12.3139 
112 1 28.2948 24.7435 14.0896 
113 1 30.0704 22.9678 12.3139 
114 1 31.8461 24.7435 14.0896 
115 1 33.6217 22.9678 12.3139 
116 1 35.3974 24.7435 14.0896 
117 1 37.173 22.9678 12.3139 
118 1 38.9487 24.7435 14.0896 
119 1 40.7243 22.9678 12.3139 
120 1 42.5 24.7435 14.0896 
121 1 44.2757 22.9678 12.3139 
122 1 46.0513 24.7435 14.0896 
123 1 47.827 22.9678 12.3139 
124 1 49.6026 24.7435 14.0896 
125 1 51.3783 22.9678 12.3139 
126 1 53.1539 24.7435 14.0896 
127 1 54.9296 22.9678 12.3139 
128 1 56.7052 24.7435 14.0896 
129 1 58.4809 22.9678 12.3139 
130 1 60.2565 24.7435 14.0896 
131 1 62.0322 22.9678 12.3139 
132 1 63.8078 24.7435 14.0896 
133 1 65.5835 22.9678 12.3139 
134 1 67.3591 24.7435 14.0896 
135 1 69.1348 22.9678 12.3139 
136 1 70.9104 24.7435 14.0896 
137 1 12.3139 26.5191 12.3139 
138 1 14.0896 28.2948 14.0896 
139 1 15.8652 26.5191 12.3139 
140 1 17.6409 28.2948 14.0896 
141 1 19.4165 26.5191 12.3139 
142 1 21.1922 28.2948 14.0896 
143 1 22.9678 26.5191 12.3139 
144 1 24.7435 28.2948 14.0896 
145 1 26.5191 26.5191 12.3139 
146 1 28.2948 28.2948 14.0896 
147 1 30.0704 26.5191 12.3139 
148 1 31.8461 28.2948 14.0896 
149 1 33.6217 26.5191 12.3139 
150 1 35.3974 28.2948 14.0896 
151 1 37.173 26.5191 12.3139 
152 1 38.9487 28.2948 14.0896 
153 1 40.7243 26.5191 12.3139 
154 1 42.5 28.2948 14.0896 
155 1 44.2757 26.5191 12.3139 
156 1 46.0513 28.2948 14.0896 
157 1 47.827 26.5191 12.3139 
158 1 49.6026 28.2948 14.0896 
159 1 51.3783 26.5191 12.3139 
160 1 53.1539 28.2948 14.0896 
161 1 54.9296 26.5191 12.3139 
162 1 56.7052 28.2948 14.0896 
163 1 58.4809 26.5191 12.3139 
164 1 60.2565 28.2948 14.0896 
165 1 62.0322 26.5191 12.3139 
166 1 63.8078 28.2948 14.0896 
167 1 65.5835 26.5191 12.3139 
168 1 67.3591 28.2948 14.0896 
169 1 69.1348 26.5191 12.3139 
170 1 70.9104 28.2948 14.0896 
171 1 12.3139 30.0704 12.3139 
172 1 14.0896 31.8461 14.0896 
173 1 15.8652 30.0704 12.3139 
174 1 17.6409 31.8461 14.0896 
175 1 19.4165 30.0704 12.3139 
176 1 21.1922 31.8461 14.0896 
177 1 22.9678 30.0704 12.3139 
178 1 24.7435 31.8461 14.0896 
179 1 26.5191 30.0704 12.3139 
180 1 28.2948 31.8461 14.0896 
181 1 30.0704 30.0704 12.3139 
182 1 31.8461 31.8461 14.0896 
183 1 33.6217 30.0704 12.3139 
184 1 35.3974 31.8461 14.0896 
185 1 37.173 30.0704 12.3139 
186 1 38.9487 31.8461 14.0896 
187 1 40.7243 30.0704 12.3139 
188 1 42.5 31.8461 14.0896 
189 1 44.2757 30.0704 12.3139 
190 1 46.0513 31.8461 14.0896 
191 1 47.827 30.0704 12.3139 
192 1 49.6026 31.8461 14.0896 
193 1 51.3783 30.0704 12.3139 
194 1 53.1539 31.8461 14.0896 
195 1 54.9296 30.0704 12.3139 
196 1 56.7052 31.8461 14.0896 
197 1 58.4809 30.0704 12.3139 
198 1 60.2565 31.8461 14.0896 
199 1 62.0322 30.0704 12.3139 
200 1 63.8078 31.8461 14.0896 
201 1 65.5835 30.0704 12.3139 
202 1 67.3591 31.8461 14.0896 
203 1 69.1348 30.0704 12.3139 
204 1 70.9104 31.8461 14.0896 
205 1 12.3139 33.6217 12.3139 
206 1 14.0896 35.3974 14.0896 
207 1 15.8652 33.6217 12.3139 
208 1 17.6409 35.3974 14.0896 
209 1 19.4165 33.6217 12.3139 
210 1 21.1922 35.3974 14.0896 
211 1 22.9678 33.6217 12.3139 
212 1 24.7435 35.3974 14.0896 
213 1 26.5191 33.6217 12.3139 
214 1 28.2948 35.3974 14.0896 
215 1 30.0704 33.6217 12.3139 
216 1 31.8461 35.3974 14.0896 
217 1 33.6217 33.6217 12.3139 
218 1 35.3974 35.3974 14.0896 
219 1 37.173 33.6217 12.3139 
220 1 38.9487 35.3974 14.0896 
221 1 40.7243 33.6217 12.3139 
222 1 42.5 35.3974 14.0896 
223 1 44.2757 33.6217 12.3139 
224 1 46.0513 35.3974 14.0896 
225 1 47.827 33.6217 12.3139 
226 1 49.6026 35.3974 14.0896 
227 1 51.3783 33.6217 12.3139 
228 1 53.1539 35.3974 14.0896 
229 1 54.9296 33.6217 12.3139 
230 1 56.7052 35.3974 14.0896 
231 1 58.4809 33.6217 12.3139 
232 1 60.2565 35.3974 14.0896 
233 1 62.0322 33.6217 12.3139 
234 1 63.8078 35.3974 14.0896 
235 1 65.5835 33.6217 12.3139 
236 1 67.3591 35.3974 14.0896 
237 1 69.1348 33.6217 12.3139 
238 1 70.9104 35.3974 14.0896 
239 1 12.3139 37.173 12.3139 
240 1 14.0896 38.9487 14.0896 
241 1 15.8652 37.173 12.3139 
242 1 17.6409 38.9487 14.0896 
243 1 19.4165 37.173 12.3139 
244 1 21.1922 38.9487 14.0896 
245 1 22.9678 37.173 12.3139 
246 1 24.7435 38.9487 14.0896 
247 1 26.5191 37.173 12.3139 
248 1 28.2948 38.9487 14.0896 
249 1 30.0704 37.173 12.3139 
250 1 31.8461 38.9487 14.0896 
251 1 33.6217 37.173 12.3139 
252 1 35.3974 38.9487 14.0896 
253 1 37.173 37.173 12.3139 
254 1 38.9487 38.9487 14.0896 
255 1 40.7243 37.173 12.3139 
256 1 42.5 38.9487 14.0896 
257 1 44.2757 37.173 12.3139 
258 1 46.0513 38.9487 14.0896 
259 1 47.827 37.173 12.3139 
260 1 49.6026 38.9487 14.0896 
261 1 51.3783 37.173 12.3139 
262 1 53.1539 38.9487 14.0896 
263 1 54.9296 37.173 12.3139 
264 1 56.7052 38.9487 14.0896 
265 1 58.4809 37.173 12.3139 
266 1 60.2565 38.9487 14.0896 
267 1 62.0322 37.173 12.3139 
268 1 63.8078 38.9487 14.0896 
269 1 65.5835 37.173 12.3139 
270 1 67.3591 38.9487 14.0896 
271 1 69.1348 37.173 12.3139 
272 1 70.9104 38.9487 14.0896 
273 1 12.3139 40.7243 12.3139 
274 1 14.0896 42.5 14.0896 
275 1 15.8652 40.7243 12.3139 
276 1 17.6409 42.5 14.0896 
277 1 19.4165 40.7243 12.3139 
278 1 21.1922 42.5 14.0896 
279 1 22.9678 40.7243 12.3139 
280 1 24.7435 42.5 14.0896 
281 1 26.5191 40.7243 12.3139 
282 1 28.2948 42.5 14.0896 
283 1 30.0704 40.7243 12.3139 
284 1 31.8461 42.5 14.0896 
285 1 33.6217 40.7243 12.3139 
286 1 35.3974 42.5 14.0896 
287 1 37.173 40.7243 12.3139 
288 1 38.9487 42.5 14.0896 
289 1 40.7243 40.7243 12.3139 
290 1 42.5 42.5 14.0896 
291 1 44.2757 40.7243 12.3139 
292 1 46.0513 42.5 14.0896 
293 1 47.827 40.7243 12.3139 
294 1 49.6026 42.5 14.0896 
295 1 51.3783 40.7243 12.3139 
296 1 53.1539 42.5 14.0896 
297 1 54.9296 40.7243 12.3139 
298 1 56.7052 42.5 14.0896 
299 1 58.4809 40.7243 12.3139 
300 1 60.2565 42.5 14.0896 
301 1 62.0322 40.7243 12.3139 
302 1 63.8078 42.5 14.0896 
303 1 65.5835 40.7243 12.3139 
304 1 67.3591 42.5 14.0896 
305 1 69.1348 40.7243 12.3139 
306 1 70.9104 42.5 14.0896 
307 1 12.3139 44.2757 12.3139 
308 1 14.0896 46.0513 14.0896 
309 1 15.8652 44.2757 12.3139 
310 1 17.6409 46.0513 14.0896 
311 1 19.4165 44.2757 12.3139 
312 1 21.1922 46.0513 14.0896 
313 1 22.9678 44.2757 12.3139 
314 1 24.7435 46.0513 14.0896 
315 1 26.5191 44.2757 12.3139 
316 1 28.2948 46.0513 14.0896 
317 1 30.0704 44.2757 12.3139 
318 1 31.8461 46.0513 14.0896 
319 1 33.6217 44.2757 12.3139 
320 1 35.3974 46.0513 14.0896 
321 1 37.173 44.2757 12.3139 
322 1 38.9487 46.0513 14.0896 
323 1 40.7243 44.2757 12.3139 
324 1 42.5 46.0513 14.0896 
325 1 44.2757 44.2757 12.3139 
326 1 46.0513 46.0513 14.0896 
327 1 47.827 44.2757 12.3139 
328 1 49.6026 46.0513 14.0896 
329 1 51.3783 44.2757 12.3139 
330 1 53.1539 46.0513 14.0896 
331 1 54.9296 44.2757 12.3139 
332 1 56.7052 46.0513 14.0896 
333 1 58.4809 44.2757 12.3139 
334 1 60.2565 46.0513 14.0896 
335 1 62.0322 44.2757 12.3139 
336 1 63.8078 46.0513 14.0896 
337 1 65.5835 44.2757 12.3139 
338 1 67.3591 46.0513 14.0896 
339 1 69.1348 44.2757 12.3139 
340 1 70.9104 46.0513 14.0896 
341 1 12.3139 47.827 12.3139 
342 1 14.0896 49.6026 14.0896 
343 1 15.8652 47.827 12.3139 
344 1 17.6409 49.6026 14.0896 
345 1 19.4165 47.827 12.3139 
346 1 21.1922 49.6026 14.0896 
347 1 22.9678 47.827 12.3139 
348 1 24.7435 49.6026 14.0896 
349 1 26.5191 47.827 12.3139 
350 1 28.2948 49.6026 14.0896 
351 1 30.0704 47.827 12.3139 
352 1 31.8461 49.6026 14.0896 
353 1 33.6217 47.827 12.3139 
354 1 35.3974 49.6026 14.0896 
355 1 37.173 47.827 12.3139 
356 1 38.9487 49.6026 14.0896 
357 1 40.7243 47.827 12.3139 
358 1 42.5 49.6026 14.0896 
359 1 44.2757 47.827 12.3139 
360 1 46.0513 49.6026 14.0896 
361 1 47.827 47.827 12.3139 
362 1 49.6026 49.6026 14.0896 
363 1 51.3783 47.827 12.3139 
364 1 53.1539 49.6026 14.0896 
365 1 54.9296 47.827 12.3139 
366 1 56.7052 49.6026 14.0896 
367 1 58.4809 47.827 12.3139 
368 1 60.2565 49.6026 14.0896 
369 1 62.0322 47.827 12.3139 
370 1 63.8078 49.6026 14.0896 
371 1 65.5835 47.827 12.3139 
372 1 67.3591 49.6026 14.0896 
373 1 69.1348 47.827 12.3139 
374 1 70.9104 49.6026 14.0896 
375 1 12.3139 51.3783 12.3139 
376 1 14.0896 53.1539 14.0896 
377 1 15.8652 51.3783 12.3139 
378 1 17.6409 53.1539 14.0896 
379 1 19.4165 51.3783 12.3139 
380 1 21.1922 53.1539 14.0896 
381 1 22.9678 51.3783 12.3139 
382 1 24.7435 53.1539 14.0896 
383 1 26.5191 51.3783 12.3139 
384 1 28.2948 53.1539 14.0896 
385 1 30.0704 51.3783 12.3139 
386 1 31.8461 53.1539 14.0896 
387 1 33.6217 51.3783 12.3139 
388 1 35.3974 53.1539 14.0896 
389 1 37.173 51.3783 12.3139 
390 1 38.9487 53.1539 14.0896 
391 1 40.7243 51.3783 12.3139 
392 1 42.5 53.1539 14.0896 
393 1 44.2757 51.3783 12.3139 
394 1 46.0513 53.1539 14.0896 
395 1 47.827 51.3783 12.3139 
396 1 49.6026 53.1539 14.0896 
397 1 51.3783 51.3783 12.3139 
398 1 53.1539 53.1539 14.0896 
399 1 54.9296 51.3783 12.3139 
400 1 56.7052 53.1539 14.0896 
401 1 58.4809 51.3783 12.3139 
402 1 60.2565 53.1539 14.0896 
403 1 62.0322 51.3783 12.3139 
404 1 63.8078 53.1539 14.0896 
405 1 65.5835 51.3783 12.3139 
406 1 67.3591 53.1539 14.0896 
407 1 69.1348 51.3783 12.3139 
408 1 70.9104 53.1539 14.0896 
409 1 12.3139 54.9296 12.3139 
410 1 14.0896 56.7052 14.0896 
411 1 15.8652 54.9296 12.3139 
412 1 17.6409 56.7052 14.0896 
413 1 19.4165 54.9296 12.3139 
414 1 21.1922 56.7052 14.0896 
415 1 22.9678 54.9296 12.3139 
416 1 24.7435 56.7052 14.0896 
417 1 26.5191 54.9296 12.3139 
418 1 28.2948 56.7052 14.0896 
419 1 30.0704 54.9296 12.3139 
420 1 31.8461 56.7052 14.0896 
421 1 33.6217 54.9296 12.3139 
422 1 35.3974 56.7052 14.0896 
423 1 37.173 54.9296 12.3139 
424 1 38.9487 56.7052 14.0896 
425 1 40.7243 54.9296 12.3139 
426 1 42.5 56.7052 14.0896 
427 1 44.2757 54.9296 12.3139 
428 1 46.0513 56.7052 14.0896 
429 1 47.827 54.9296 12.3139 
430 1 49.6026 56.7052 14.0896 
431 1 51.3783 54.9296 12.3139 
432 1 53.1539 56.7052 14.0896 
433 1 54.9296 54.9296 12.3139 
434 1 56.7052 56.7052 14.0896 
435 1 58.4809 54.9296 12.3139 
436 1 60.2565 56.7052 14.0896 
437 1 62.0322 54.9296 12.3139 
438 1 63.8078 56.7052 14.0896 
439 1 65.5835 54.9296 12.3139 
440 1 67.3591 56.7052 14.0896 
441 1 69.1348 54.9296 12.3139 
442 1 70.9104 56.7052 14.0896 
443 1 12.3139 58.4809 12.3139 
444 1 14.0896 60.2565 14.0896 
445 1 15.8652 58.4809 12.3139 
446 1 17.6409 60.2565 14.0896 
447 1 19.4165 58.4809 12.3139 
448 1 21.1922 60.2565 14.0896 
449 1 22.9678 58.4809 12.3139 
450 1 24.7435 60.2565 14.0896 
451 1 26.5191 58.4809 12.3139 
452 1 28.2948 60.2565 14.0896 
453 1 30.0704 58.4809 12.3139 
454 1 31.8461 60.2565 14.0896 
455 1 33.6217 58.4809 12.3139 
456 1 35.3974 60.2565 14.0896 
457 1 37.173 58.4809 12.3139 
458 1 38.9487 60.2565 14.0896 
459 1 40.7243 58.4809 12.3139 
460 1 42.5 60.2565 14.0896 
461 1 44.2757 58.4809 12.3139 
462 1 46.0513 60.2565 14.0896 
463 1 47.827 58.4809 12.3139 
464 1 49.6026 60.2565 14.0896 
465 1 51.3783 58.4809 12.3139 
466 1 53.1539 60.2565 14.0896 
467 1 54.9296 58.4809 12.3139 
468 1 56.7052 60.2565 14.0896 
469 1 58.4809 58.4809 12.3139 
470 1 60.2565 60.2565 14.0896 
471 1 62.0322 58.4809 12.3139 
472 1 63.8078 60.2565 14.0896 
473 1 65.5835 58.4809 12.3139 
474 1 67.3591 60.2565 14.0896 
475 1 69.1348 58.4809 12.3139 
476 1 70.9104 60.2565 14.0896 
477 1 12.3139 62.0322 12.3139 
478 1 14.0896 63.8078 14.0896 
479 1 15.8652 62.0322 12.3139 
480 1 17.6409 63.8078 14.0896 
481 1 19.4165 62.0322 12.3139 
482 1 21.1922 63.8078 14.0896 
483 1 22.9678 62.0322 12.3139 
484 1 24.7435 63.8078 14.0896 
485 1 26.5191 62.0322 12.3139 
486 1 28.2948 63.8078 14.0896 
487 1 30.0704 62.0322 12.3139 
488 1 31.8461 63.8078 14.0896 
489 1 33.6217 62.0322 12.3139 
490 1 35.3974 63.8078 14.0896 
491 1 37.173 62.0322 12.3139 
492 1 38.9487 63.8078 14.0896 
493 1 40.7243 62.0322 12.3139 
494 1 42.5 63.8078 14.0896 
495 1 44.2757 62.0322 12.3139 
496 1 46.0513 63.8078 14.0896 
497 1 47.827 62.0322 12.3139 
498 1 49.6026 63.8078 14.0896 
499 1 51.3783 62.0322 12.3139 
500 1 53.1539 63.8078 14.0896 
501 1 54.9296 62.0322 12.3139 
502 1 56.7052 63.8078 14.0896 
503 1 58.4809 62.0322 12.3139 
504 1 60.2565 63.8078 14.0896 
505 1 62.0322 62.0322 12.3139 
506 1 63.8078 63.8078 14.0896 
507 1 65.5835 62.0322 12.3139 
508 1 67.3591 63.8078 14.0896 
509 1 69.1348 62.0322 12.3139 
510 1 70.9104 63.8078 14.0896 
511 1 12.3139 65.5835 12.3139 
512 1 14.0896 67.3591 14.0896 
513 1 15.8652 65.5835 12.3139 
514 1 17.6409 67.3591 14.0896 
515 1 19.4165 65.5835 12.3139 
516 1 21.1922 67.3591 14.0896 
517 1 22.9678 65.5835 12.3139 
518 1 24.7435 67.3591 14.0896 
519 1 26.5191 65.5835 12.3139 
520 1 28.2948 67.3591 14.0896 
521 1 30.0704 65.5835 12.3139 
522 1 31.8461 67.3591 14.0896 
523 1 33.6217 65.5835 12.3139 
524 1 35.3974 67.3591 14.0896 
525 1 37.173 65.5835 12.3139 
526 1 38.9487 67.3591 14.0896 
527 1 40.7243 65.5835 12.3139 
528 1 42.5 67.3591 14.0896 
529 1 44.2757 65.5835 12.3139 
530 1 46.0513 67.3591 14.0896 
531 1 47.827 65.5835 12.3139 
532 1 49.6026 67.3591 14.0896 
533 1 51.3783 65.5835 12.3139 
534 1 53.1539 67.3591 14.0896 
535 1 54.9296 65.5835 12.3139 
536 1 56.7052 67.3591 14.0896 
537 1 58.4809 65.5835 12.3139 
538 1 60.2565 67.3591 14.0896 
539 1 62.0322 65.5835 12.3139 
540 1 63.8078 67.3591 14.0896 
541 1 65.5835 65.5835 12.3139 
542 1 67.3591 67.3591 14.0896 
543 1 69.1348 65.5835 12.3139 
544 1 70.9104 67.3591 14.0896 
545 1 12.3139 69.1348 12.3139 
546 1 14.0896 70.9104 14.0896 
547 1 15.8652 69.1348 12.3139 
548 1 17.6409 70.9104 14.0896 
549 1 19.4165 69.1348 12.3139 
550 1 21.1922 70.9104 14.0896 
551 1 22.9678 69.1348 12.3139 
552 1 24.7435 70.9104 14.0896 
553 1 26.5191 69.1348 12.3139 
554 1 28.2948 70.9104 14.0896 
555 1 30.0704 69.1348 12.3139 
556 1 31.8461 70.9104 14.0896 
557 1 33.6217 69.1348 12.3139 
558 1 35.3974 70.9104 14.0896 
559 1 37.173 69.1348 12.3139 
560 1 38.9487 70.9104 14.0896 
561 1 40.7243 69.1348 12.3139 
562 1 42.5 70.9104 14.0896 
563 1 44.2757 69.1348 12.3139 
564 1 46.0513 70.9104 14.0896 
565 1 47.827 69.1348 12.3139 
566 1 49.6026 70.9104 14.0896 
567 1 51.3783 69.1348 12.3139 
568 1 53.1539 70.9104 14.0896 
569 1 54.9296 69.1348 12.3139 
570 1 56.7052 70.9104 14.0896 
571 1 58.4809 69.1348 12.3139 
572 1 60.2565 70.9104 14.0896 
573 1 62.0322 69.1348 12.3139 
574 1 63.8078 70.9104 14.0896 
575 1 65.5835 69.1348 12.3139 
576 1 67.3591 70.9104 14.0896 
577 1 69.1348 69.1348 12.3139 
578 1 70.9104 70.9104 14.0896 
579 1 12.3139 12.3139 15.8652 
580 1 14.0896 14.0896 17.6409 
581 1 15.8652 12.3139 15.8652 
582 1 17.6409 14.0896 17.6409 
583 1 19.4165 12.3139 15.8652 
584 1 21.1922 14.0896 17.6409 
585 1 22.9678 12.3139 15.8652 
586 1 24.7435 14.0896 17.6409 
587 1 26.5191 12.3139 15.8652 
588 1 28.2948 14.0896 17.6409 
589 1 30.0704 12.3139 15.8652 
590 1 31.8461 14.0896 17.6409 
591 1 33.6217 12.3139 15.8652 
592 1 35.3974 14.0896 17.6409 
593 1 37.173 12.3139 15.8652 
594 1 38.9487 14.0896 17.6409 
595 1 40.7243 12.3139 15.8652 
596 1 42.5 14.0896 17.6409 
597 1 44.2757 12.3139 15.8652 
598 1 46.0513 14.0896 17.6409 
599 1 47.827 12.3139 15.8652 
600 1 49.6026 14.0896 17.6409 
601 1 51.3783 12.3139 15.8652 
602 1 53.1539 14.0896 17.6409 
603 1 54.9296 12.3139 15.8652 
604 1 56.7052 14.0896 17.6409 
605 1 58.4809 12.3139 15.8652 
606 1 60.2565 14.0896 17.6409 
607 1 62.0322 12.3139 15.8652 
608 1 63.8078 14.0896 17.6409 
609 1 65.5835 12.3139 15.8652 
610 1 67.3591 14.0896 17.6409 
611 1 69.1348 12.3139 15.8652 
612 1 70.9104 14.0896 17.6409 
613 1 12.3139 15.8652 15.8652 
614 1 14.0896 17.6409 17.6409 
615 1 15.8652 15.8652 15.8652 
616 1 17.6409 17.6409 17.6409 
617 1 19.4165 15.8652 15.8652 
618 1 21.1922 17.6409 17.6409 
619 1 22.9678 15.8652 15.8652 
620 1 24.7435 17.6409 17.6409 
621 1 26.5191 15.8652 15.8652 
622 1 28.2948 17.6409 17.6409 
623 1 30.0704 15.8652 15.8652 
624 1 31.8461 17.6409 17.6409 
625 1 33.6217 15.8652 15.8652 
626 1 35.3974 17.6409 17.6409 
627 1 37.173 15.8652 15.8652 
628 1 38.9487 17.6409 17.6409 
629 1 40.7243 15.8652 15.8652 
630 1 42.5 17.6409 17.6409 
631 1 44.2757 15.8652 15.8652 
632 1 46.0513 17.6409 17.6409 
633 1 47.827 15.8652 15.8652 
634 1 49.6026 17.6409 17.6409 
635 1 51.3783 15.8652 15.8652 
636 1 53.1539 17.6409 17.6409 
637 1 54.9296 15.8652 15.8652 
638 1 56.7052 17.6409 17.6409 
639 1 58.4809 15.8652 15.8652 
640 1 60.2565 17.6409 17.6409 
641 1 62.0322 15.8652 15.8652 
642 1 63.8078 17.6409 17.6409 
643 1 65.5835 15.8652 15.8652 
644 1 67.3591 17.6409 17.6409 
645 1 69.1348 15.8652 15.8652 
646 1 70.9104 17.6409 17.6409 
647 1 12.3139 19.4165 15.8652 
648 1 14.0896 21.1922 17.6409 
649 1 15.8652 19.4165 15.8652 
650 1 17.6409 21.1922 17.6409 
651 1 19.4165 19.4165 15.8652 
652 1 21.1922 21.1922 17.6409 
653 1 22.9678 19.4165 15.8652 
654 1 24.7435 21.1922 17.6409 
655 1 26.5191 19.4165 15.8652 
656 1 28.2948 21.1922 17.6409 
657 1 30.0704 19.4165 15.8652 
658 1 31.8461 21.1922 17.6409 
659 1 33.6217 19.4165 15.8652 
660 1 35.3974 21.1922 17.6409 
661 1 37.173 19.4165 15.8652 
662 1 38.9487 21.1922 17.6409 
663 1 40.7243 19.4165 15.8652 
664 1 42.5 21.1922 17.6409 
665 1 44.2757 19.4165 15.8652 
666 1 46.0513 21.1922 17.6409 
667 1 47.827 19.4165 15.8652 
668 1 49.6026 21.1922 17.6409 
669 1 51.3783 19.4165 15.8652 
670 1 53.1539 21.1922 17.6409 
671 1 54.9296 19.4165 15.8652 
672 1 56.7052 21.1922 17.6409 
673 1 58.4809 19.4165 15.8652 
674 1 60.2565 21.1922 17.6409 
675 1 62.0322 19.4165 15.8652 
676 1 63.8078 21.1922 17.6409 
677 1 65.5835 19.4165 15.8652 
678 1 67.3591 21.1922 17.6409 
679 1 69.1348 19.4165 15.8652 
680 1 70.9104 21.1922 17.6409 
681 1 12.3139 22.9678 15.8652 
682 1 14.0896 24.7435 17.6409 
683 1 15.8652 22.9678 15.8652 
684 1 17.6409 24.7435 17.6409 
685 1 19.4165 22.9678 15.8652 
686 1 21.1922 24.7435 17.6409 
687 1 22.9678 22.9678 15.8652 
688 1 24.7435 24.7435 17.6409 
689 1 26.5191 22.9678 15.8652 
690 1 28.2948 24.7435 17.6409 
691 1 30.0704 22.9678 15.8652 
692 1 31.8461 24.7435 17.6409 
693 1 33.6217 22.9678 15.8652 
694 1 35.3974 24.7435 17.6409 
695 1 37.173 22.9678 15.8652 
696 1 38.9487 24.7435 17.6409 
697 1 40.7243 22.9678 15.8652 
698 1 42.5 24.7435 17.6409 
699 1 44.2757 22.9678 15.8652 
700 1 46.0513 24.7435 17.6409 
701 1 47.827 22.9678 15.8652 
702 1 49.6026 24.7435 17.6409 
703 1 51.3783 22.9678 15.8652 
704 1 53.1539 24.7435 17.6409 
705 1 54.9296 22.9678 15.8652 
706 1 56.7052 24.7435 17.6409 
707 1 58.4809 22.9678 15.8652 
708 1 60.2565 24.7435 17.6409 
709 1 62.0322 22.9678 15.8652 
710 1 63.8078 24.7435 17.6409 
711 1 65.5835 22.9678 15.8652 
712 1 67.3591 24.7435 17.6409 
713 1 69.1348 22.9678 15.8652 
714 1 70.9104 24.7435 17.6409 
715 1 12.3139 26.5191 15.8652 
716 1 14.0896 28.2948 17.6409 
717 1 15.8652 26.5191 15.8652 
718 1 17.6409 28.2948 17.6409 
719 1 19.4165 26.5191 15.8652 
720 1 21.1922 28.2948 17.6409 
721 1 22.9678 26.5191 15.8652 
722 1 24.7435 28.2948 17.6409 
723 1 26.5191 26.5191 15.8652 
724 1 28.2948 28.2948 17.6409 
725 1 30.0704 26.5191 15.8652 
726 1 31.8461 28.2948 17.6409 
727 1 33.6217 26.5191 15.8652 
728 1 35.3974 28.2948 17.6409 
729 1 37.173 26.5191 15.8652 
730 1 38.9487 28.2948 17.6409 
731 1 40.7243 26.5191 15.8652 
732 1 42.5 28.2948 17.6409 
733 1 44.2757 26.5191 15.8652 
734 1 46.0513 28.2948 17.6409 
735 1 47.827 26.5191 15.8652 
736 1 49.6026 28.2948 17.6409 
737 1 51.3783 26.5191 15.8652 
738 1 53.1539 28.2948 17.6409 
739 1 54.9296 26.5191 15.8652 
740 1 56.7052 28.2948 17.6409 
741 1 58.4809 26.5191 15.8652 
742 1 60.2565 28.2948 17.6409 
743 1 62.0322 26.5191 15.8652 
744 1 63.8078 28.2948 17.6409 
745 1 65.5835 26.5191 15.8652 
746 1 67.3591 28.2948 17.6409 
747 1 69.1348 26.5191 15.8652 
748 1 70.9104 28.2948 17.6409 
749 1 12.3139 30.0704 15.8652 
750 1 14.0896 31.8461 17.6409 
751 1 15.8652 30.0704 15.8652 
752 1 17.6409 31.8461 17.6409 
753 1 19.4165 30.0704 15.8652 
754 1 21.1922 31.8461 17.6409 
755 1 22.9678 30.0704 15.8652 
756 1 24.7435 31.8461 17.6409 
757 1 26.5191 30.0704 15.8652 
758 1 28.2948 31.8461 17.6409 
759 1 30.0704 30.0704 15.8652 
760 1 31.8461 31.8461 17.6409 
761 1 33.6217 30.0704 15.8652 
762 1 35.3974 31.8461 17.6409 
763 1 37.173 30.0704 15.8652 
764 1 38.9487 31.8461 17.6409 
765 1 40.7243 30.0704 15.8652 
766 1 42.5 31.8461 17.6409 
767 1 44.2757 30.0704 15.8652 
768 1 46.0513 31.8461 17.6409 
769 1 47.827 30.0704 15.8652 
770 1 49.6026 31.8461 17.6409 
771 1 51.3783 30.0704 15.8652 
772 1 53.1539 31.8461 17.6409 
773 1 54.9296 30.0704 15.8652 
774 1 56.7052 31.8461 17.6409 
775 1 58.4809 30.0704 15.8652 
776 1 60.2565 31.8461 17.6409 
777 1 62.0322 30.0704 15.8652 
778 1 63.8078 31.8461 17.6409 
779 1 65.5835 30.0704 15.8652 
780 1 67.3591 31.8461 17.6409 
781 1 69.1348 30.0704 15.8652 
782 1 70.9104 31.8461 17.6409 
783 1 12.3139 33.6217 15.8652 
784 1 14.0896 35.3974 17.6409 
785 1 15.8652 33.6217 15.8652 
786 1 17.6409 35.3974 17.6409 
787 1 19.4165 33.6217 15.8652 
788 1 21.1922 35.3974 17.6409 
789 1 22.9678 33.6217 15.8652 
790 1 24.7435 35.3974 17.6409 
791 1 26.5191 33.6217 15.8652 
792 1 28.2948 35.3974 17.6409 
793 1 30.0704 33.6217 15.8652 
794 1 31.8461 35.3974 17.6409 
795 1 33.6217 33.6217 15.8652 
796 1 35.3974 35.3974 17.6409 
797 1 37.173 33.6217 15.8652 
798 1 38.9487 35.3974 17.6409 
799 1 40.7243 33.6217 15.8652 
800 1 42.5 35.3974 17.6409 
801 1 44.2757 33.6217 15.8652 
802 1 46.0513 35.3974 17.6409 
803 1 47.827 33.6217 15.8652 
804 1 49.6026 35.3974 17.6409 
805 1 51.3783 33.6217 15.8652 
806 1 53.1539 35.3974 17.6409 
807 1 54.9296 33.6217 15.8652 
808 1 56.7052 35.3974 17.6409 
809 1 58.4809 33.6217 15.8652 
810 1 60.2565 35.3974 17.6409 
811 1 62.0322 33.6217 15.8652 
812 1 63.8078 35.3974 17.6409 
813 1 65.5835 33.6217 15.8652 
814 1 67.3591 35.3974 17.6409 
815 1 69.1348 33.6217 15.8652 
816 1 70.9104 35.3974 17.6409 
817 1 12.3139 37.173 15.8652 
818 1 14.0896 38.9487 17.6409 
819 1 15.8652 37.173 15.8652 
820 1 17.6409 38.9487 17.6409 
821 1 19.4165 37.173 15.8652 
822 1 21.1922 38.9487 17.6409 
823 1 22.9678 37.173 15.8652 
824 1 24.7435 38.9487 17.6409 
825 1 26.5191 37.173 15.8652 
826 1 28.2948 38.9487 17.6409 
827 1 30.0704 37.173 15.8652 
828 1 31.8461 38.9487 17.6409 
829 1 33.6217 37.173 15.8652 
830 1 35.3974 38.9487 17.6409 
831 1 37.173 37.173 15.8652 
832 1 38.9487 38.9487 17.6409 
833 1 40.7243 37.173 15.8652 
834 1 42.5 38.9487 17.6409 
835 1 44.2757 37.173 15.8652 
836 1 46.0513 38.9487 17.6409 
837 1 47.827 37.173 15.8652 
838 1 49.6026 38.9487 17.6409 
839 1 51.3783 37.173 15.8652 
840 1 53.1539 38.9487 17.6409 
841 1 54.9296 37.173 15.8652 
842 1 56.7052 38.9487 17.6409 
843 1 58.4809 37.173 15.8652 
844 1 60.2565 38.9487 17.6409 
845 1 62.0322 37.173 15.8652 
846 1 63.8078 38.9487 17.6409 
847 1 65.5835 37.173 15.8652 
848 1 67.3591 38.9487 17.6409 
849 1 69.1348 37.173 15.8652 
850 1 70.9104 38.9487 17.6409 
851 1 12.3139 40.7243 15.8652 
852 1 14.0896 42.5 17.6409 
853 1 15.8652 40.7243 15.8652 
854 1 17.6409 42.5 17.6409 
855 1 19.4165 40.7243 15.8652 
856 1 21.1922 42.5 17.6409 
857 1 22.9678 40.7243 15.8652 
858 1 24.7435 42.5 17.6409 
859 1 26.5191 40.7243 15.8652 
860 1 28.2948 42.5 17.6409 
861 1 30.0704 40.7243 15.8652 
862 1 31.8461 42.5 17.6409 
863 1 33.6217 40.7243 15.8652 
864 1 35.3974 42.5 17.6409 
865 1 37.173 40.7243 15.8652 
866 1 38.9487 42.5 17.6409 
867 1 40.7243 40.7243 15.8652 
868 1 42.5 42.5 17.6409 
869 1 44.2757 40.7243 15.8652 
870 1 46.0513 42.5 17.6409 
871 1 47.827 40.7243 15.8652 
872 1 49.6026 42.5 17.6409 
873 1 51.3783 40.7243 15.8652 
874 1 53.1539 42.5 17.6409 
875 1 54.9296 40.7243 15.8652 
876 1 56.7052 42.5 17.6409 
877 1 58.4809 40.7243 15.8652 
878 1 60.2565 42.5 17.6409 
879 1 62.0322 40.7243 15.8652 
880 1 63.8078 42.5 17.6409 
881 1 65.5835 40.7243 15.8652 
882 1 67.3591 42.5 17.6409 
883 1 69.1348 40.7243 15.8652 
884 1 70.9104 42.5 17.6409 
885 1 12.3139 44.2757 15.8652 
886 1 14.0896 46.0513 17.6409 
887 1 15.8652 44.2757 15.8652 
888 1 17.6409 46.0513 17.6409 
889 1 19.4165 44.2757 15.8652 
890 1 21.1922 46.0513 17.6409 
891 1 22.9678 44.2757 15.8652 
892 1 24.7435 46.0513 17.6409 
893 1 26.5191 44.2757 15.8652 
894 1 28.2948 46.0513 17.6409 
895 1 30.0704 44.2757 15.8652 
896 1 31.8461 46.0513 17.6409 
897 1 33.6217 44.2757 15.8652 
898 1 35.3974 46.0513 17.6409 
899 1 37.173 44.2757 15.8652 
900 1 38.9487 46.0513 17.6409 
901 1 40.7243 44.2757 15.8652 
902 1 42.5 46.0513 17.6409 
903 1 44.2757 44.2757 15.8652 
904 1 46.0513 46.0513 17.6409 
905 1 47.827 44.2757 15.8652 
906 1 49.6026 46.0513 17.6409 
907 1 51.3783 44.2757 15.8652 
908 1 53.1539 46.0513 17.6409 
909 1 54.9296 44.2757 15.8652 
910 1 56.7052 46.0513 17.6409 
911 1 58.4809 44.2757 15.8652 
912 1 60.2565 46.0513 17.6409 
913 1 62.0322 44.2757 15.8652 
914 1 63.8078 46.0513 17.6409 
915 1 65.5835 44.2757 15.8652 
916 1 67.3591 46.0513 17.6409 
917 1 69.1348 44.2757 15.8652 
918 1 70.9104 46.0513 17.6409 
919 1 12.3139 47.827 15.8652 
920 1 14.0896 49.6026 17.6409 
921 1 15.8652 47.827 15.8652 
922 1 17.6409 49.6026 17.6409 
923 1 19.4165 47.827 15.8652 
924 1 21.1922 49.6026 17.6409 
925 1 22.9678 47.827 15.8652 
926 1 24.7435 49.6026 17.6409 
927 1 26.5191 47.827 15.8652 
928 1 28.2948 49.6026 17.6409 
929 1 30.0704 47.827 15.8652 
930 1 31.8461 49.6026 17.6409 
931 1 33.6217 47.827 15.8652 
932 1 35.3974 49.6026 17.6409 
933 1 37.173 47.827 15.8652 
934 1 38.9487 49.6026 17.6409 
935 1 40.7243 47.827 15.8652 
936 1 42.5 49.6026 17.6409 
937 1 44.2757 47.827 15.8652 
938 1 46.0513 49.6026 17.6409 
939 1 47.827 47.827 15.8652 
940 1 49.6026 49.6026 17.6409 
941 1 51.3783 47.827 15.8652 
942 1 53.1539 49.6026 17.6409 
943 1 54.9296 47.827 15.8652 
944 1 56.7052 49.6026 17.6409 
945 1 58.4809 47.827 15.8652 
946 1 60.2565 49.6026 17.6409 
947 1 62.0322 47.827 15.8652 
948 1 63.8078 49.6026 17.6409 
949 1 65.5835 47.827 15.8652 
950 1 67.3591 49.6026 17.6409 
951 1 69.1348 47.827 15.8652 
952 1 70.9104 49.6026 17.6409 
953 1 12.3139 51.3783 15.8652 
954 1 14.0896 53.1539 17.6409 
955 1 15.8652 51.3783 15.8652 
956 1 17.6409 53.1539 17.6409 
957 1 19.4165 51.3783 15.8652 
958 1 21.1922 53.1539 17.6409 
959 1 22.9678 51.3783 15.8652 
960 1 24.7435 53.1539 17.6409 
961 1 26.5191 51.3783 15.8652 
962 1 28.2948 53.1539 17.6409 
963 1 30.0704 51.3783 15.8652 
964 1 31.8461 53.1539 17.6409 
965 1 33.6217 51.3783 15.8652 
966 1 35.3974 53.1539 17.6409 
967 1 37.173 51.3783 15.8652 
968 1 38.9487 53.1539 17.6409 
969 1 40.7243 51.3783 15.8652 
970 1 42.5 53.1539 17.6409 
971 1 44.2757 51.3783 15.8652 
972 1 46.0513 53.1539 17.6409 
973 1 47.827 51.3783 15.8652 