ITEM: TIMESTEP
60
ITEM: NUMBER OF ATOMS
9826
ITEM: BOX BOUNDS pp pp pp
1.2294067983760288e+01 7.2705932016239416e+01
1.2294067983760288e+01 7.2705932016239416e+01
1.2294067983760288e+01 7.2705932016239416e+01
ITEM: ATOMS id type xu yu zu 
1 1 12.2941 12.2941 12.2941 
2 1 14.0709 14.0709 14.0709 
3 1 15.8477 12.2941 12.2941 
4 1 17.6245 14.0709 14.0709 
5 1 19.4013 12.2941 12.2941 
6 1 21.1782 14.0709 14.0709 
7 1 22.955 12.2941 12.2941 
8 1 24.7318 14.0709 14.0709 
9 1 26.5086 12.2941 12.2941 
10 1 28.2854 14.0709 14.0709 
11 1 30.0623 12.2941 12.2941 
12 1 31.8391 14.0709 14.0709 
13 1 33.6159 12.2941 12.2941 
14 1 35.3927 14.0709 14.0709 
15 1 37.1695 12.2941 12.2941 
16 1 38.9464 14.0709 14.0709 
17 1 40.7232 12.2941 12.2941 
18 1 42.5 14.0709 14.0709 
19 1 44.2768 12.2941 12.2941 
20 1 46.0536 14.0709 14.0709 
21 1 47.8305 12.2941 12.2941 
22 1 49.6073 14.0709 14.0709 
23 1 51.3841 12.2941 12.2941 
24 1 53.1609 14.0709 14.0709 
25 1 54.9377 12.2941 12.2941 
26 1 56.7146 14.0709 14.0709 
27 1 58.4914 12.2941 12.2941 
28 1 60.2682 14.0709 14.0709 
29 1 62.045 12.2941 12.2941 
30 1 63.8218 14.0709 14.0709 
31 1 65.5987 12.2941 12.2941 
32 1 67.3755 14.0709 14.0709 
33 1 69.1523 12.2941 12.2941 
34 1 70.9291 14.0709 14.0709 
35 1 12.2941 15.8477 12.2941 
36 1 14.0709 17.6245 14.0709 
37 1 15.8477 15.8477 12.2941 
38 1 17.6245 17.6245 14.0709 
39 1 19.4013 15.8477 12.2941 
40 1 21.1782 17.6245 14.0709 
41 1 22.955 15.8477 12.2941 
42 1 24.7318 17.6245 14.0709 
43 1 26.5086 15.8477 12.2941 
44 1 28.2854 17.6245 14.0709 
45 1 30.0623 15.8477 12.2941 
46 1 31.8391 17.6245 14.0709 
47 1 33.6159 15.8477 12.2941 
48 1 35.3927 17.6245 14.0709 
49 1 37.1695 15.8477 12.2941 
50 1 38.9464 17.6245 14.0709 
51 1 40.7232 15.8477 12.2941 
52 1 42.5 17.6245 14.0709 
53 1 44.2768 15.8477 12.2941 
54 1 46.0536 17.6245 14.0709 
55 1 47.8305 15.8477 12.2941 
56 1 49.6073 17.6245 14.0709 
57 1 51.3841 15.8477 12.2941 
58 1 53.1609 17.6245 14.0709 
59 1 54.9377 15.8477 12.2941 
60 1 56.7146 17.6245 14.0709 
61 1 58.4914 15.8477 12.2941 
62 1 60.2682 17.6245 14.0709 
63 1 62.045 15.8477 12.2941 
64 1 63.8218 17.6245 14.0709 
65 1 65.5987 15.8477 12.2941 
66 1 67.3755 17.6245 14.0709 
67 1 69.1523 15.8477 12.2941 
68 1 70.9291 17.6245 14.0709 
69 1 12.2941 19.4013 12.2941 
70 1 14.0709 21.1782 14.0709 
71 1 15.8477 19.4013 12.2941 
72 1 17.6245 21.1782 14.0709 
73 1 19.4013 19.4013 12.2941 
74 1 21.1782 21.1782 14.0709 
75 1 22.955 19.4013 12.2941 
76 1 24.7318 21.1782 14.0709 
77 1 26.5086 19.4013 12.2941 
78 1 28.2854 21.1782 14.0709 
79 1 30.0623 19.4013 12.2941 
80 1 31.8391 21.1782 14.0709 
81 1 33.6159 19.4013 12.2941 
82 1 35.3927 21.1782 14.0709 
83 1 37.1695 19.4013 12.2941 
84 1 38.9464 21.1782 14.0709 
85 1 40.7232 19.4013 12.2941 
86 1 42.5 21.1782 14.0709 
87 1 44.2768 19.4013 12.2941 
88 1 46.0536 21.1782 14.0709 
89 1 47.8305 19.4013 12.2941 
90 1 49.6073 21.1782 14.0709 
91 1 51.3841 19.4013 12.2941 
92 1 53.1609 21.1782 14.0709 
93 1 54.9377 19.4013 12.2941 
94 1 56.7146 21.1782 14.0709 
95 1 58.4914 19.4013 12.2941 
96 1 60.2682 21.1782 14.0709 
97 1 62.045 19.4013 12.2941 
98 1 63.8218 21.1782 14.0709 
99 1 65.5987 19.4013 12.2941 
100 1 67.3755 21.1782 14.0709 
101 1 69.1523 19.4013 12.2941 
102 1 70.9291 21.1782 14.0709 
103 1 12.2941 22.955 12.2941 
104 1 14.0709 24.7318 14.0709 
105 1 15.8477 22.955 12.2941 
106 1 17.6245 24.7318 14.0709 
107 1 19.4013 22.955 12.2941 
108 1 21.1782 24.7318 14.0709 
109 1 22.955 22.955 12.2941 
110 1 24.7318 24.7318 14.0709 
111 1 26.5086 22.955 12.2941 
112 1 28.2854 24.7318 14.0709 
113 1 30.0623 22.955 12.2941 
114 1 31.8391 24.7318 14.0709 
115 1 33.6159 22.955 12.2941 
116 1 35.3927 24.7318 14.0709 
117 1 37.1695 22.955 12.2941 
118 1 38.9464 24.7318 14.0709 
119 1 40.7232 22.955 12.2941 
120 1 42.5 24.7318 14.0709 
121 1 44.2768 22.955 12.2941 
122 1 46.0536 24.7318 14.0709 
123 1 47.8305 22.955 12.2941 
124 1 49.6073 24.7318 14.0709 
125 1 51.3841 22.955 12.2941 
126 1 53.1609 24.7318 14.0709 
127 1 54.9377 22.955 12.2941 
128 1 56.7146 24.7318 14.0709 
129 1 58.4914 22.955 12.2941 
130 1 60.2682 24.7318 14.0709 
131 1 62.045 22.955 12.2941 
132 1 63.8218 24.7318 14.0709 
133 1 65.5987 22.955 12.2941 
134 1 67.3755 24.7318 14.0709 
135 1 69.1523 22.955 12.2941 
136 1 70.9291 24.7318 14.0709 
137 1 12.2941 26.5086 12.2941 
138 1 14.0709 28.2854 14.0709 
139 1 15.8477 26.5086 12.2941 
140 1 17.6245 28.2854 14.0709 
141 1 19.4013 26.5086 12.2941 
142 1 21.1782 28.2854 14.0709 
143 1 22.955 26.5086 12.2941 
144 1 24.7318 28.2854 14.0709 
145 1 26.5086 26.5086 12.2941 
146 1 28.2854 28.2854 14.0709 
147 1 30.0623 26.5086 12.2941 
148 1 31.8391 28.2854 14.0709 
149 1 33.6159 26.5086 12.2941 
150 1 35.3927 28.2854 14.0709 
151 1 37.1695 26.5086 12.2941 
152 1 38.9464 28.2854 14.0709 
153 1 40.7232 26.5086 12.2941 
154 1 42.5 28.2854 14.0709 
155 1 44.2768 26.5086 12.2941 
156 1 46.0536 28.2854 14.0709 
157 1 47.8305 26.5086 12.2941 
158 1 49.6073 28.2854 14.0709 
159 1 51.3841 26.5086 12.2941 
160 1 53.1609 28.2854 14.0709 
161 1 54.9377 26.5086 12.2941 
162 1 56.7146 28.2854 14.0709 
163 1 58.4914 26.5086 12.2941 
164 1 60.2682 28.2854 14.0709 
165 1 62.045 26.5086 12.2941 
166 1 63.8218 28.2854 14.0709 
167 1 65.5987 26.5086 12.2941 
168 1 67.3755 28.2854 14.0709 
169 1 69.1523 26.5086 12.2941 
170 1 70.9291 28.2854 14.0709 
171 1 12.2941 30.0623 12.2941 
172 1 14.0709 31.8391 14.0709 
173 1 15.8477 30.0623 12.2941 
174 1 17.6245 31.8391 14.0709 
175 1 19.4013 30.0623 12.2941 
176 1 21.1782 31.8391 14.0709 
177 1 22.955 30.0623 12.2941 
178 1 24.7318 31.8391 14.0709 
179 1 26.5086 30.0623 12.2941 
180 1 28.2854 31.8391 14.0709 
181 1 30.0623 30.0623 12.2941 
182 1 31.8391 31.8391 14.0709 
183 1 33.6159 30.0623 12.2941 
184 1 35.3927 31.8391 14.0709 
185 1 37.1695 30.0623 12.2941 
186 1 38.9464 31.8391 14.0709 
187 1 40.7232 30.0623 12.2941 
188 1 42.5 31.8391 14.0709 
189 1 44.2768 30.0623 12.2941 
190 1 46.0536 31.8391 14.0709 
191 1 47.8305 30.0623 12.2941 
192 1 49.6073 31.8391 14.0709 
193 1 51.3841 30.0623 12.2941 
194 1 53.1609 31.8391 14.0709 
195 1 54.9377 30.0623 12.2941 
196 1 56.7146 31.8391 14.0709 
197 1 58.4914 30.0623 12.2941 
198 1 60.2682 31.8391 14.0709 
199 1 62.045 30.0623 12.2941 
200 1 63.8218 31.8391 14.0709 
201 1 65.5987 30.0623 12.2941 
202 1 67.3755 31.8391 14.0709 
203 1 69.1523 30.0623 12.2941 
204 1 70.9291 31.8391 14.0709 
205 1 12.2941 33.6159 12.2941 
206 1 14.0709 35.3927 14.0709 
207 1 15.8477 33.6159 12.2941 
208 1 17.6245 35.3927 14.0709 
209 1 19.4013 33.6159 12.2941 
210 1 21.1782 35.3927 14.0709 
211 1 22.955 33.6159 12.2941 
212 1 24.7318 35.3927 14.0709 
213 1 26.5086 33.6159 12.2941 
214 1 28.2854 35.3927 14.0709 
215 1 30.0623 33.6159 12.2941 
216 1 31.8391 35.3927 14.0709 
217 1 33.6159 33.6159 12.2941 
218 1 35.3927 35.3927 14.0709 
219 1 37.1695 33.6159 12.2941 
220 1 38.9464 35.3927 14.0709 
221 1 40.7232 33.6159 12.2941 
222 1 42.5 35.3927 14.0709 
223 1 44.2768 33.6159 12.2941 
224 1 46.0536 35.3927 14.0709 
225 1 47.8305 33.6159 12.2941 
226 1 49.6073 35.3927 14.0709 
227 1 51.3841 33.6159 12.2941 
228 1 53.1609 35.3927 14.0709 
229 1 54.9377 33.6159 12.2941 
230 1 56.7146 35.3927 14.0709 
231 1 58.4914 33.6159 12.2941 
232 1 60.2682 35.3927 14.0709 
233 1 62.045 33.6159 12.2941 
234 1 63.8218 35.3927 14.0709 
235 1 65.5987 33.6159 12.2941 
236 1 67.3755 35.3927 14.0709 
237 1 69.1523 33.6159 12.2941 
238 1 70.9291 35.3927 14.0709 
239 1 12.2941 37.1695 12.2941 
240 1 14.0709 38.9464 14.0709 
241 1 15.8477 37.1695 12.2941 
242 1 17.6245 38.9464 14.0709 
243 1 19.4013 37.1695 12.2941 
244 1 21.1782 38.9464 14.0709 
245 1 22.955 37.1695 12.2941 
246 1 24.7318 38.9464 14.0709 
247 1 26.5086 37.1695 12.2941 
248 1 28.2854 38.9464 14.0709 
249 1 30.0623 37.1695 12.2941 
250 1 31.8391 38.9464 14.0709 
251 1 33.6159 37.1695 12.2941 
252 1 35.3927 38.9464 14.0709 
253 1 37.1695 37.1695 12.2941 
254 1 38.9464 38.9464 14.0709 
255 1 40.7232 37.1695 12.2941 
256 1 42.5 38.9464 14.0709 
257 1 44.2768 37.1695 12.2941 
258 1 46.0536 38.9464 14.0709 
259 1 47.8305 37.1695 12.2941 
260 1 49.6073 38.9464 14.0709 
261 1 51.3841 37.1695 12.2941 
262 1 53.1609 38.9464 14.0709 
263 1 54.9377 37.1695 12.2941 
264 1 56.7146 38.9464 14.0709 
265 1 58.4914 37.1695 12.2941 
266 1 60.2682 38.9464 14.0709 
267 1 62.045 37.1695 12.2941 
268 1 63.8218 38.9464 14.0709 
269 1 65.5987 37.1695 12.2941 
270 1 67.3755 38.9464 14.0709 
271 1 69.1523 37.1695 12.2941 
272 1 70.9291 38.9464 14.0709 
273 1 12.2941 40.7232 12.2941 
274 1 14.0709 42.5 14.0709 
275 1 15.8477 40.7232 12.2941 
276 1 17.6245 42.5 14.0709 
277 1 19.4013 40.7232 12.2941 
278 1 21.1782 42.5 14.0709 
279 1 22.955 40.7232 12.2941 
280 1 24.7318 42.5 14.0709 
281 1 26.5086 40.7232 12.2941 
282 1 28.2854 42.5 14.0709 
283 1 30.0623 40.7232 12.2941 
284 1 31.8391 42.5 14.0709 
285 1 33.6159 40.7232 12.2941 
286 1 35.3927 42.5 14.0709 
287 1 37.1695 40.7232 12.2941 
288 1 38.9464 42.5 14.0709 
289 1 40.7232 40.7232 12.2941 
290 1 42.5 42.5 14.0709 
291 1 44.2768 40.7232 12.2941 
292 1 46.0536 42.5 14.0709 
293 1 47.8305 40.7232 12.2941 
294 1 49.6073 42.5 14.0709 
295 1 51.3841 40.7232 12.2941 
296 1 53.1609 42.5 14.0709 
297 1 54.9377 40.7232 12.2941 
298 1 56.7146 42.5 14.0709 
299 1 58.4914 40.7232 12.2941 
300 1 60.2682 42.5 14.0709 
301 1 62.045 40.7232 12.2941 
302 1 63.8218 42.5 14.0709 
303 1 65.5987 40.7232 12.2941 
304 1 67.3755 42.5 14.0709 
305 1 69.1523 40.7232 12.2941 
306 1 70.9291 42.5 14.0709 
307 1 12.2941 44.2768 12.2941 
308 1 14.0709 46.0536 14.0709 
309 1 15.8477 44.2768 12.2941 
310 1 17.6245 46.0536 14.0709 
311 1 19.4013 44.2768 12.2941 
312 1 21.1782 46.0536 14.0709 
313 1 22.955 44.2768 12.2941 
314 1 24.7318 46.0536 14.0709 
315 1 26.5086 44.2768 12.2941 
316 1 28.2854 46.0536 14.0709 
317 1 30.0623 44.2768 12.2941 
318 1 31.8391 46.0536 14.0709 
319 1 33.6159 44.2768 12.2941 
320 1 35.3927 46.0536 14.0709 
321 1 37.1695 44.2768 12.2941 
322 1 38.9464 46.0536 14.0709 
323 1 40.7232 44.2768 12.2941 
324 1 42.5 46.0536 14.0709 
325 1 44.2768 44.2768 12.2941 
326 1 46.0536 46.0536 14.0709 
327 1 47.8305 44.2768 12.2941 
328 1 49.6073 46.0536 14.0709 
329 1 51.3841 44.2768 12.2941 
330 1 53.1609 46.0536 14.0709 
331 1 54.9377 44.2768 12.2941 
332 1 56.7146 46.0536 14.0709 
333 1 58.4914 44.2768 12.2941 
334 1 60.2682 46.0536 14.0709 
335 1 62.045 44.2768 12.2941 
336 1 63.8218 46.0536 14.0709 
337 1 65.5987 44.2768 12.2941 
338 1 67.3755 46.0536 14.0709 
339 1 69.1523 44.2768 12.2941 
340 1 70.9291 46.0536 14.0709 
341 1 12.2941 47.8305 12.2941 
342 1 14.0709 49.6073 14.0709 
343 1 15.8477 47.8305 12.2941 
344 1 17.6245 49.6073 14.0709 
345 1 19.4013 47.8305 12.2941 
346 1 21.1782 49.6073 14.0709 
347 1 22.955 47.8305 12.2941 
348 1 24.7318 49.6073 14.0709 
349 1 26.5086 47.8305 12.2941 
350 1 28.2854 49.6073 14.0709 
351 1 30.0623 47.8305 12.2941 
352 1 31.8391 49.6073 14.0709 
353 1 33.6159 47.8305 12.2941 
354 1 35.3927 49.6073 14.0709 
355 1 37.1695 47.8305 12.2941 
356 1 38.9464 49.6073 14.0709 
357 1 40.7232 47.8305 12.2941 
358 1 42.5 49.6073 14.0709 
359 1 44.2768 47.8305 12.2941 
360 1 46.0536 49.6073 14.0709 
361 1 47.8305 47.8305 12.2941 
362 1 49.6073 49.6073 14.0709 
363 1 51.3841 47.8305 12.2941 
364 1 53.1609 49.6073 14.0709 
365 1 54.9377 47.8305 12.2941 
366 1 56.7146 49.6073 14.0709 
367 1 58.4914 47.8305 12.2941 
368 1 60.2682 49.6073 14.0709 
369 1 62.045 47.8305 12.2941 
370 1 63.8218 49.6073 14.0709 
371 1 65.5987 47.8305 12.2941 
372 1 67.3755 49.6073 14.0709 
373 1 69.1523 47.8305 12.2941 
374 1 70.9291 49.6073 14.0709 
375 1 12.2941 51.3841 12.2941 
376 1 14.0709 53.1609 14.0709 
377 1 15.8477 51.3841 12.2941 
378 1 17.6245 53.1609 14.0709 
379 1 19.4013 51.3841 12.2941 
380 1 21.1782 53.1609 14.0709 
381 1 22.955 51.3841 12.2941 
382 1 24.7318 53.1609 14.0709 
383 1 26.5086 51.3841 12.2941 
384 1 28.2854 53.1609 14.0709 
385 1 30.0623 51.3841 12.2941 
386 1 31.8391 53.1609 14.0709 
387 1 33.6159 51.3841 12.2941 
388 1 35.3927 53.1609 14.0709 
389 1 37.1695 51.3841 12.2941 
390 1 38.9464 53.1609 14.0709 
391 1 40.7232 51.3841 12.2941 
392 1 42.5 53.1609 14.0709 
393 1 44.2768 51.3841 12.2941 
394 1 46.0536 53.1609 14.0709 
395 1 47.8305 51.3841 12.2941 
396 1 49.6073 53.1609 14.0709 
397 1 51.3841 51.3841 12.2941 
398 1 53.1609 53.1609 14.0709 
399 1 54.9377 51.3841 12.2941 
400 1 56.7146 53.1609 14.0709 
401 1 58.4914 51.3841 12.2941 
402 1 60.2682 53.1609 14.0709 
403 1 62.045 51.3841 12.2941 
404 1 63.8218 53.1609 14.0709 
405 1 65.5987 51.3841 12.2941 
406 1 67.3755 53.1609 14.0709 
407 1 69.1523 51.3841 12.2941 
408 1 70.9291 53.1609 14.0709 
409 1 12.2941 54.9377 12.2941 
410 1 14.0709 56.7146 14.0709 
411 1 15.8477 54.9377 12.2941 
412 1 17.6245 56.7146 14.0709 
413 1 19.4013 54.9377 12.2941 
414 1 21.1782 56.7146 14.0709 
415 1 22.955 54.9377 12.2941 
416 1 24.7318 56.7146 14.0709 
417 1 26.5086 54.9377 12.2941 
418 1 28.2854 56.7146 14.0709 
419 1 30.0623 54.9377 12.2941 
420 1 31.8391 56.7146 14.0709 
421 1 33.6159 54.9377 12.2941 
422 1 35.3927 56.7146 14.0709 
423 1 37.1695 54.9377 12.2941 
424 1 38.9464 56.7146 14.0709 
425 1 40.7232 54.9377 12.2941 
426 1 42.5 56.7146 14.0709 
427 1 44.2768 54.9377 12.2941 
428 1 46.0536 56.7146 14.0709 
429 1 47.8305 54.9377 12.2941 
430 1 49.6073 56.7146 14.0709 
431 1 51.3841 54.9377 12.2941 
432 1 53.1609 56.7146 14.0709 
433 1 54.9377 54.9377 12.2941 
434 1 56.7146 56.7146 14.0709 
435 1 58.4914 54.9377 12.2941 
436 1 60.2682 56.7146 14.0709 
437 1 62.045 54.9377 12.2941 
438 1 63.8218 56.7146 14.0709 
439 1 65.5987 54.9377 12.2941 
440 1 67.3755 56.7146 14.0709 
441 1 69.1523 54.9377 12.2941 
442 1 70.9291 56.7146 14.0709 
443 1 12.2941 58.4914 12.2941 
444 1 14.0709 60.2682 14.0709 
445 1 15.8477 58.4914 12.2941 
446 1 17.6245 60.2682 14.0709 
447 1 19.4013 58.4914 12.2941 
448 1 21.1782 60.2682 14.0709 
449 1 22.955 58.4914 12.2941 
450 1 24.7318 60.2682 14.0709 
451 1 26.5086 58.4914 12.2941 
452 1 28.2854 60.2682 14.0709 
453 1 30.0623 58.4914 12.2941 
454 1 31.8391 60.2682 14.0709 
455 1 33.6159 58.4914 12.2941 
456 1 35.3927 60.2682 14.0709 
457 1 37.1695 58.4914 12.2941 
458 1 38.9464 60.2682 14.0709 
459 1 40.7232 58.4914 12.2941 
460 1 42.5 60.2682 14.0709 
461 1 44.2768 58.4914 12.2941 
462 1 46.0536 60.2682 14.0709 
463 1 47.8305 58.4914 12.2941 
464 1 49.6073 60.2682 14.0709 
465 1 51.3841 58.4914 12.2941 
466 1 53.1609 60.2682 14.0709 
467 1 54.9377 58.4914 12.2941 
468 1 56.7146 60.2682 14.0709 
469 1 58.4914 58.4914 12.2941 
470 1 60.2682 60.2682 14.0709 
471 1 62.045 58.4914 12.2941 
472 1 63.8218 60.2682 14.0709 
473 1 65.5987 58.4914 12.2941 
474 1 67.3755 60.2682 14.0709 
475 1 69.1523 58.4914 12.2941 
476 1 70.9291 60.2682 14.0709 
477 1 12.2941 62.045 12.2941 
478 1 14.0709 63.8218 14.0709 
479 1 15.8477 62.045 12.2941 
480 1 17.6245 63.8218 14.0709 
481 1 19.4013 62.045 12.2941 
482 1 21.1782 63.8218 14.0709 
483 1 22.955 62.045 12.2941 
484 1 24.7318 63.8218 14.0709 
485 1 26.5086 62.045 12.2941 
486 1 28.2854 63.8218 14.0709 
487 1 30.0623 62.045 12.2941 
488 1 31.8391 63.8218 14.0709 
489 1 33.6159 62.045 12.2941 
490 1 35.3927 63.8218 14.0709 
491 1 37.1695 62.045 12.2941 
492 1 38.9464 63.8218 14.0709 
493 1 40.7232 62.045 12.2941 
494 1 42.5 63.8218 14.0709 
495 1 44.2768 62.045 12.2941 
496 1 46.0536 63.8218 14.0709 
497 1 47.8305 62.045 12.2941 
498 1 49.6073 63.8218 14.0709 
499 1 51.3841 62.045 12.2941 
500 1 53.1609 63.8218 14.0709 
501 1 54.9377 62.045 12.2941 
502 1 56.7146 63.8218 14.0709 
503 1 58.4914 62.045 12.2941 
504 1 60.2682 63.8218 14.0709 
505 1 62.045 62.045 12.2941 
506 1 63.8218 63.8218 14.0709 
507 1 65.5987 62.045 12.2941 
508 1 67.3755 63.8218 14.0709 
509 1 69.1523 62.045 12.2941 
510 1 70.9291 63.8218 14.0709 
511 1 12.2941 65.5987 12.2941 
512 1 14.0709 67.3755 14.0709 
513 1 15.8477 65.5987 12.2941 
514 1 17.6245 67.3755 14.0709 
515 1 19.4013 65.5987 12.2941 
516 1 21.1782 67.3755 14.0709 
517 1 22.955 65.5987 12.2941 
518 1 24.7318 67.3755 14.0709 
519 1 26.5086 65.5987 12.2941 
520 1 28.2854 67.3755 14.0709 
521 1 30.0623 65.5987 12.2941 
522 1 31.8391 67.3755 14.0709 
523 1 33.6159 65.5987 12.2941 
524 1 35.3927 67.3755 14.0709 
525 1 37.1695 65.5987 12.2941 
526 1 38.9464 67.3755 14.0709 
527 1 40.7232 65.5987 12.2941 
528 1 42.5 67.3755 14.0709 
529 1 44.2768 65.5987 12.2941 
530 1 46.0536 67.3755 14.0709 
531 1 47.8305 65.5987 12.2941 
532 1 49.6073 67.3755 14.0709 
533 1 51.3841 65.5987 12.2941 
534 1 53.1609 67.3755 14.0709 
535 1 54.9377 65.5987 12.2941 
536 1 56.7146 67.3755 14.0709 
537 1 58.4914 65.5987 12.2941 
538 1 60.2682 67.3755 14.0709 
539 1 62.045 65.5987 12.2941 
540 1 63.8218 67.3755 14.0709 
541 1 65.5987 65.5987 12.2941 
542 1 67.3755 67.3755 14.0709 
543 1 69.1523 65.5987 12.2941 
544 1 70.9291 67.3755 14.0709 
545 1 12.2941 69.1523 12.2941 
546 1 14.0709 70.9291 14.0709 
547 1 15.8477 69.1523 12.2941 
548 1 17.6245 70.9291 14.0709 
549 1 19.4013 69.1523 12.2941 
550 1 21.1782 70.9291 14.0709 
551 1 22.955 69.1523 12.2941 
552 1 24.7318 70.9291 14.0709 
553 1 26.5086 69.1523 12.2941 
554 1 28.2854 70.9291 14.0709 
555 1 30.0623 69.1523 12.2941 
556 1 31.8391 70.9291 14.0709 
557 1 33.6159 69.1523 12.2941 
558 1 35.3927 70.9291 14.0709 
559 1 37.1695 69.1523 12.2941 
560 1 38.9464 70.9291 14.0709 
561 1 40.7232 69.1523 12.2941 
562 1 42.5 70.9291 14.0709 
563 1 44.2768 69.1523 12.2941 
564 1 46.0536 70.9291 14.0709 
565 1 47.8305 69.1523 12.2941 
566 1 49.6073 70.9291 14.0709 
567 1 51.3841 69.1523 12.2941 
568 1 53.1609 70.9291 14.0709 
569 1 54.9377 69.1523 12.2941 
570 1 56.7146 70.9291 14.0709 
571 1 58.4914 69.1523 12.2941 
572 1 60.2682 70.9291 14.0709 
573 1 62.045 69.1523 12.2941 
574 1 63.8218 70.9291 14.0709 
575 1 65.5987 69.1523 12.2941 
576 1 67.3755 70.9291 14.0709 
577 1 69.1523 69.1523 12.2941 
578 1 70.9291 70.9291 14.0709 
579 1 12.2941 12.2941 15.8477 
580 1 14.0709 14.0709 17.6245 
581 1 15.8477 12.2941 15.8477 
582 1 17.6245 14.0709 17.6245 
583 1 19.4013 12.2941 15.8477 
584 1 21.1782 14.0709 17.6245 
585 1 22.955 12.2941 15.8477 
586 1 24.7318 14.0709 17.6245 
587 1 26.5086 12.2941 15.8477 
588 1 28.2854 14.0709 17.6245 
589 1 30.0623 12.2941 15.8477 
590 1 31.8391 14.0709 17.6245 
591 1 33.6159 12.2941 15.8477 
592 1 35.3927 14.0709 17.6245 
593 1 37.1695 12.2941 15.8477 
594 1 38.9464 14.0709 17.6245 
595 1 40.7232 12.2941 15.8477 
596 1 42.5 14.0709 17.6245 
597 1 44.2768 12.2941 15.8477 
598 1 46.0536 14.0709 17.6245 
599 1 47.8305 12.2941 15.8477 
600 1 49.6073 14.0709 17.6245 
601 1 51.3841 12.2941 15.8477 
602 1 53.1609 14.0709 17.6245 
603 1 54.9377 12.2941 15.8477 
604 1 56.7146 14.0709 17.6245 
605 1 58.4914 12.2941 15.8477 
606 1 60.2682 14.0709 17.6245 
607 1 62.045 12.2941 15.8477 
608 1 63.8218 14.0709 17.6245 
609 1 65.5987 12.2941 15.8477 
610 1 67.3755 14.0709 17.6245 
611 1 69.1523 12.2941 15.8477 
612 1 70.9291 14.0709 17.6245 
613 1 12.2941 15.8477 15.8477 
614 1 14.0709 17.6245 17.6245 
615 1 15.8477 15.8477 15.8477 
616 1 17.6245 17.6245 17.6245 
617 1 19.4013 15.8477 15.8477 
618 1 21.1782 17.6245 17.6245 
619 1 22.955 15.8477 15.8477 
620 1 24.7318 17.6245 17.6245 
621 1 26.5086 15.8477 15.8477 
622 1 28.2854 17.6245 17.6245 
623 1 30.0623 15.8477 15.8477 
624 1 31.8391 17.6245 17.6245 
625 1 33.6159 15.8477 15.8477 
626 1 35.3927 17.6245 17.6245 
627 1 37.1695 15.8477 15.8477 
628 1 38.9464 17.6245 17.6245 
629 1 40.7232 15.8477 15.8477 
630 1 42.5 17.6245 17.6245 
631 1 44.2768 15.8477 15.8477 
632 1 46.0536 17.6245 17.6245 
633 1 47.8305 15.8477 15.8477 
634 1 49.6073 17.6245 17.6245 
635 1 51.3841 15.8477 15.8477 
636 1 53.1609 17.6245 17.6245 
637 1 54.9377 15.8477 15.8477 
638 1 56.7146 17.6245 17.6245 
639 1 58.4914 15.8477 15.8477 
640 1 60.2682 17.6245 17.6245 
641 1 62.045 15.8477 15.8477 
642 1 63.8218 17.6245 17.6245 
643 1 65.5987 15.8477 15.8477 
644 1 67.3755 17.6245 17.6245 
645 1 69.1523 15.8477 15.8477 
646 1 70.9291 17.6245 17.6245 
647 1 12.2941 19.4013 15.8477 
648 1 14.0709 21.1782 17.6245 
649 1 15.8477 19.4013 15.8477 
650 1 17.6245 21.1782 17.6245 
651 1 19.4013 19.4013 15.8477 
652 1 21.1782 21.1782 17.6245 
653 1 22.955 19.4013 15.8477 
654 1 24.7318 21.1782 17.6245 
655 1 26.5086 19.4013 15.8477 
656 1 28.2854 21.1782 17.6245 
657 1 30.0623 19.4013 15.8477 
658 1 31.8391 21.1782 17.6245 
659 1 33.6159 19.4013 15.8477 
660 1 35.3927 21.1782 17.6245 
661 1 37.1695 19.4013 15.8477 
662 1 38.9464 21.1782 17.6245 
663 1 40.7232 19.4013 15.8477 
664 1 42.5 21.1782 17.6245 
665 1 44.2768 19.4013 15.8477 
666 1 46.0536 21.1782 17.6245 
667 1 47.8305 19.4013 15.8477 
668 1 49.6073 21.1782 17.6245 
669 1 51.3841 19.4013 15.8477 
670 1 53.1609 21.1782 17.6245 
671 1 54.9377 19.4013 15.8477 
672 1 56.7146 21.1782 17.6245 
673 1 58.4914 19.4013 15.8477 
674 1 60.2682 21.1782 17.6245 
675 1 62.045 19.4013 15.8477 
676 1 63.8218 21.1782 17.6245 
677 1 65.5987 19.4013 15.8477 
678 1 67.3755 21.1782 17.6245 
679 1 69.1523 19.4013 15.8477 
680 1 70.9291 21.1782 17.6245 
681 1 12.2941 22.955 15.8477 
682 1 14.0709 24.7318 17.6245 
683 1 15.8477 22.955 15.8477 
684 1 17.6245 24.7318 17.6245 
685 1 19.4013 22.955 15.8477 
686 1 21.1782 24.7318 17.6245 
687 1 22.955 22.955 15.8477 
688 1 24.7318 24.7318 17.6245 
689 1 26.5086 22.955 15.8477 
690 1 28.2854 24.7318 17.6245 
691 1 30.0623 22.955 15.8477 
692 1 31.8391 24.7318 17.6245 
693 1 33.6159 22.955 15.8477 
694 1 35.3927 24.7318 17.6245 
695 1 37.1695 22.955 15.8477 
696 1 38.9464 24.7318 17.6245 
697 1 40.7232 22.955 15.8477 
698 1 42.5 24.7318 17.6245 
699 1 44.2768 22.955 15.8477 
700 1 46.0536 24.7318 17.6245 
701 1 47.8305 22.955 15.8477 
702 1 49.6073 24.7318 17.6245 
703 1 51.3841 22.955 15.8477 
704 1 53.1609 24.7318 17.6245 
705 1 54.9377 22.955 15.8477 
706 1 56.7146 24.7318 17.6245 
707 1 58.4914 22.955 15.8477 
708 1 60.2682 24.7318 17.6245 
709 1 62.045 22.955 15.8477 
710 1 63.8218 24.7318 17.6245 
711 1 65.5987 22.955 15.8477 
712 1 67.3755 24.7318 17.6245 
713 1 69.1523 22.955 15.8477 
714 1 70.9291 24.7318 17.6245 
715 1 12.2941 26.5086 15.8477 
716 1 14.0709 28.2854 17.6245 
717 1 15.8477 26.5086 15.8477 
718 1 17.6245 28.2854 17.6245 
719 1 19.4013 26.5086 15.8477 
720 1 21.1782 28.2854 17.6245 
721 1 22.955 26.5086 15.8477 
722 1 24.7318 28.2854 17.6245 
723 1 26.5086 26.5086 15.8477 
724 1 28.2854 28.2854 17.6245 
725 1 30.0623 26.5086 15.8477 
726 1 31.8391 28.2854 17.6245 
727 1 33.6159 26.5086 15.8477 
728 1 35.3927 28.2854 17.6245 
729 1 37.1695 26.5086 15.8477 
730 1 38.9464 28.2854 17.6245 
731 1 40.7232 26.5086 15.8477 
732 1 42.5 28.2854 17.6245 
733 1 44.2768 26.5086 15.8477 
734 1 46.0536 28.2854 17.6245 
735 1 47.8305 26.5086 15.8477 
736 1 49.6073 28.2854 17.6245 
737 1 51.3841 26.5086 15.8477 
738 1 53.1609 28.2854 17.6245 
739 1 54.9377 26.5086 15.8477 
740 1 56.7146 28.2854 17.6245 
741 1 58.4914 26.5086 15.8477 
742 1 60.2682 28.2854 17.6245 
743 1 62.045 26.5086 15.8477 
744 1 63.8218 28.2854 17.6245 
745 1 65.5987 26.5086 15.8477 
746 1 67.3755 28.2854 17.6245 
747 1 69.1523 26.5086 15.8477 
748 1 70.9291 28.2854 17.6245 
749 1 12.2941 30.0623 15.8477 
750 1 14.0709 31.8391 17.6245 
751 1 15.8477 30.0623 15.8477 
752 1 17.6245 31.8391 17.6245 
753 1 19.4013 30.0623 15.8477 
754 1 21.1782 31.8391 17.6245 
755 1 22.955 30.0623 15.8477 
756 1 24.7318 31.8391 17.6245 
757 1 26.5086 30.0623 15.8477 
758 1 28.2854 31.8391 17.6245 
759 1 30.0623 30.0623 15.8477 
760 1 31.8391 31.8391 17.6245 
761 1 33.6159 30.0623 15.8477 
762 1 35.3927 31.8391 17.6245 
763 1 37.1695 30.0623 15.8477 
764 1 38.9464 31.8391 17.6245 
765 1 40.7232 30.0623 15.8477 
766 1 42.5 31.8391 17.6245 
767 1 44.2768 30.0623 15.8477 
768 1 46.0536 31.8391 17.6245 
769 1 47.8305 30.0623 15.8477 
770 1 49.6073 31.8391 17.6245 
771 1 51.3841 30.0623 15.8477 
772 1 53.1609 31.8391 17.6245 
773 1 54.9377 30.0623 15.8477 
774 1 56.7146 31.8391 17.6245 
775 1 58.4914 30.0623 15.8477 
776 1 60.2682 31.8391 17.6245 
777 1 62.045 30.0623 15.8477 
778 1 63.8218 31.8391 17.6245 
779 1 65.5987 30.0623 15.8477 
780 1 67.3755 31.8391 17.6245 
781 1 69.1523 30.0623 15.8477 
782 1 70.9291 31.8391 17.6245 
783 1 12.2941 33.6159 15.8477 
784 1 14.0709 35.3927 17.6245 
785 1 15.8477 33.6159 15.8477 
786 1 17.6245 35.3927 17.6245 
787 1 19.4013 33.6159 15.8477 
788 1 21.1782 35.3927 17.6245 
789 1 22.955 33.6159 15.8477 
790 1 24.7318 35.3927 17.6245 
791 1 26.5086 33.6159 15.8477 
792 1 28.2854 35.3927 17.6245 
793 1 30.0623 33.6159 15.8477 
794 1 31.8391 35.3927 17.6245 
795 1 33.6159 33.6159 15.8477 
796 1 35.3927 35.3927 17.6245 
797 1 37.1695 33.6159 15.8477 
798 1 38.9464 35.3927 17.6245 
799 1 40.7232 33.6159 15.8477 
800 1 42.5 35.3927 17.6245 
801 1 44.2768 33.6159 15.8477 
802 1 46.0536 35.3927 17.6245 
803 1 47.8305 33.6159 15.8477 
804 1 49.6073 35.3927 17.6245 
805 1 51.3841 33.6159 15.8477 
806 1 53.1609 35.3927 17.6245 
807 1 54.9377 33.6159 15.8477 
808 1 56.7146 35.3927 17.6245 
809 1 58.4914 33.6159 15.8477 
810 1 60.2682 35.3927 17.6245 
811 1 62.045 33.6159 15.8477 
812 1 63.8218 35.3927 17.6245 
813 1 65.5987 33.6159 15.8477 
814 1 67.3755 35.3927 17.6245 
815 1 69.1523 33.6159 15.8477 
816 1 70.9291 35.3927 17.6245 
817 1 12.2941 37.1695 15.8477 
818 1 14.0709 38.9464 17.6245 
819 1 15.8477 37.1695 15.8477 
820 1 17.6245 38.9464 17.6245 
821 1 19.4013 37.1695 15.8477 
822 1 21.1782 38.9464 17.6245 
823 1 22.955 37.1695 15.8477 
824 1 24.7318 38.9464 17.6245 
825 1 26.5086 37.1695 15.8477 
826 1 28.2854 38.9464 17.6245 
827 1 30.0623 37.1695 15.8477 
828 1 31.8391 38.9464 17.6245 
829 1 33.6159 37.1695 15.8477 
830 1 35.3927 38.9464 17.6245 
831 1 37.1695 37.1695 15.8477 
832 1 38.9464 38.9464 17.6245 
833 1 40.7232 37.1695 15.8477 
834 1 42.5 38.9464 17.6245 
835 1 44.2768 37.1695 15.8477 
836 1 46.0536 38.9464 17.6245 
837 1 47.8305 37.1695 15.8477 
838 1 49.6073 38.9464 17.6245 
839 1 51.3841 37.1695 15.8477 
840 1 53.1609 38.9464 17.6245 
841 1 54.9377 37.1695 15.8477 
842 1 56.7146 38.9464 17.6245 
843 1 58.4914 37.1695 15.8477 
844 1 60.2682 38.9464 17.6245 
845 1 62.045 37.1695 15.8477 
846 1 63.8218 38.9464 17.6245 
847 1 65.5987 37.1695 15.8477 
848 1 67.3755 38.9464 17.6245 
849 1 69.1523 37.1695 15.8477 
850 1 70.9291 38.9464 17.6245 
851 1 12.2941 40.7232 15.8477 
852 1 14.0709 42.5 17.6245 
853 1 15.8477 40.7232 15.8477 
854 1 17.6245 42.5 17.6245 
855 1 19.4013 40.7232 15.8477 
856 1 21.1782 42.5 17.6245 
857 1 22.955 40.7232 15.8477 
858 1 24.7318 42.5 17.6245 
859 1 26.5086 40.7232 15.8477 
860 1 28.2854 42.5 17.6245 
861 1 30.0623 40.7232 15.8477 
862 1 31.8391 42.5 17.6245 
863 1 33.6159 40.7232 15.8477 
864 1 35.3927 42.5 17.6245 
865 1 37.1695 40.7232 15.8477 
866 1 38.9464 42.5 17.6245 
867 1 40.7232 40.7232 15.8477 
868 1 42.5 42.5 17.6245 
869 1 44.2768 40.7232 15.8477 
870 1 46.0536 42.5 17.6245 
871 1 47.8305 40.7232 15.8477 
872 1 49.6073 42.5 17.6245 
873 1 51.3841 40.7232 15.8477 
874 1 53.1609 42.5 17.6245 
875 1 54.9377 40.7232 15.8477 
876 1 56.7146 42.5 17.6245 
877 1 58.4914 40.7232 15.8477 
878 1 60.2682 42.5 17.6245 
879 1 62.045 40.7232 15.8477 
880 1 63.8218 42.5 17.6245 
881 1 65.5987 40.7232 15.8477 
882 1 67.3755 42.5 17.6245 
883 1 69.1523 40.7232 15.8477 
884 1 70.9291 42.5 17.6245 
885 1 12.2941 44.2768 15.8477 
886 1 14.0709 46.0536 17.6245 
887 1 15.8477 44.2768 15.8477 
888 1 17.6245 46.0536 17.6245 
889 1 19.4013 44.2768 15.8477 
890 1 21.1782 46.0536 17.6245 
891 1 22.955 44.2768 15.8477 
892 1 24.7318 46.0536 17.6245 
893 1 26.5086 44.2768 15.8477 
894 1 28.2854 46.0536 17.6245 
895 1 30.0623 44.2768 15.8477 
896 1 31.8391 46.0536 17.6245 
897 1 33.6159 44.2768 15.8477 
898 1 35.3927 46.0536 17.6245 
899 1 37.1695 44.2768 15.8477 
900 1 38.9464 46.0536 17.6245 
901 1 40.7232 44.2768 15.8477 
902 1 42.5 46.0536 17.6245 
903 1 44.2768 44.2768 15.8477 
904 1 46.0536 46.0536 17.6245 
905 1 47.8305 44.2768 15.8477 
906 1 49.6073 46.0536 17.6245 
907 1 51.3841 44.2768 15.8477 
908 1 53.1609 46.0536 17.6245 
909 1 54.9377 44.2768 15.8477 
910 1 56.7146 46.0536 17.6245 
911 1 58.4914 44.2768 15.8477 
912 1 60.2682 46.0536 17.6245 
913 1 62.045 44.2768 15.8477 
914 1 63.8218 46.0536 17.6245 
915 1 65.5987 44.2768 15.8477 
916 1 67.3755 46.0536 17.6245 
917 1 69.1523 44.2768 15.8477 
918 1 70.9291 46.0536 17.6245 
919 1 12.2941 47.8305 15.8477 
920 1 14.0709 49.6073 17.6245 
921 1 15.8477 47.8305 15.8477 
922 1 17.6245 49.6073 17.6245 
923 1 19.4013 47.8305 15.8477 
924 1 21.1782 49.6073 17.6245 
925 1 22.955 47.8305 15.8477 
926 1 24.7318 49.6073 17.6245 
927 1 26.5086 47.8305 15.8477 
928 1 28.2854 49.6073 17.6245 
929 1 30.0623 47.8305 15.8477 
930 1 31.8391 49.6073 17.6245 
931 1 33.6159 47.8305 15.8477 
932 1 35.3927 49.6073 17.6245 
933 1 37.1695 47.8305 15.8477 
934 1 38.9464 49.6073 17.6245 
935 1 40.7232 47.8305 15.8477 
936 1 42.5 49.6073 17.6245 
937 1 44.2768 47.8305 15.8477 
938 1 46.0536 49.6073 17.6245 
939 1 47.8305 47.8305 15.8477 
940 1 49.6073 49.6073 17.6245 
941 1 51.3841 47.8305 15.8477 
942 1 53.1609 49.6073 17.6245 
943 1 54.9377 47.8305 15.8477 
944 1 56.7146 49.6073 17.6245 
945 1 58.4914 47.8305 15.8477 
946 1 60.2682 49.6073 17.6245 
947 1 62.045 47.8305 15.8477 
948 1 63.8218 49.6073 17.6245 
949 1 65.5987 47.8305 15.8477 
950 1 67.3755 49.6073 17.6245 
951 1 69.1523 47.8305 15.8477 
952 1 70.9291 49.6073 17.6245 
953 1 12.2941 51.3841 15.8477 
954 1 14.0709 53.1609 17.6245 
955 1 15.8477 51.3841 15.8477 
956 1 17.6245 53.1609 17.6245 
957 1 19.4013 51.3841 15.8477 
958 1 21.1782 53.1609 17.6245 
959 1 22.955 51.3841 15.8477 
960 1 24.7318 53.1609 17.6245 
961 1 26.5086 51.3841 15.8477 
962 1 28.2854 53.1609 17.6245 
963 1 30.0623 51.3841 15.8477 
964 1 31.8391 53.1609 17.6245 
965 1 33.6159 51.3841 15.8477 
966 1 35.3927 53.1609 17.6245 
967 1 37.1695 51.3841 15.8477 
968 1 38.9464 53.1609 17.6245 
969 1 40.7232 51.3841 15.8477 
970 1 42.5 53.1609 17.6245 
971 1 44.2768 51.3841 15.8477 
972 1 46.0536 53.1609 17.6245 
973 1 47.8305 51.3841 15.8477 