ITEM: TIMESTEP
88
ITEM: NUMBER OF ATOMS
19652
ITEM: BOX BOUNDS pp pp pp
1.8186797649406625e+01 6.6813202350593045e+01
3.1500457555746358e+01 1.1572386108760863e+02
2.9698916197529773e+01 1.0910550256018352e+02
ITEM: ATOMS id type xu yu zu 
1 1 18.1868 31.5005 29.6989 
2 1 19.617 33.9776 29.6989 
3 1 19.617 35.6291 32.0344 
4 1 18.1868 33.1519 32.0344 
5 1 21.0472 31.5005 29.6989 
6 1 22.4774 33.9776 29.6989 
7 1 22.4774 35.6291 32.0344 
8 1 21.0472 33.1519 32.0344 
9 1 23.9076 31.5005 29.6989 
10 1 25.3377 33.9776 29.6989 
11 1 25.3377 35.6291 32.0344 
12 1 23.9076 33.1519 32.0344 
13 1 26.7679 31.5005 29.6989 
14 1 28.1981 33.9776 29.6989 
15 1 28.1981 35.6291 32.0344 
16 1 26.7679 33.1519 32.0344 
17 1 29.6283 31.5005 29.6989 
18 1 31.0585 33.9776 29.6989 
19 1 31.0585 35.6291 32.0344 
20 1 29.6283 33.1519 32.0344 
21 1 32.4887 31.5005 29.6989 
22 1 33.9189 33.9776 29.6989 
23 1 33.9189 35.6291 32.0344 
24 1 32.4887 33.1519 32.0344 
25 1 35.3491 31.5005 29.6989 
26 1 36.7792 33.9776 29.6989 
27 1 36.7792 35.6291 32.0344 
28 1 35.3491 33.1519 32.0344 
29 1 38.2094 31.5005 29.6989 
30 1 39.6396 33.9776 29.6989 
31 1 39.6396 35.6291 32.0344 
32 1 38.2094 33.1519 32.0344 
33 1 41.0698 31.5005 29.6989 
34 1 42.5 33.9776 29.6989 
35 1 42.5 35.6291 32.0344 
36 1 41.0698 33.1519 32.0344 
37 1 43.9302 31.5005 29.6989 
38 1 45.3604 33.9776 29.6989 
39 1 45.3604 35.6291 32.0344 
40 1 43.9302 33.1519 32.0344 
41 1 46.7906 31.5005 29.6989 
42 1 48.2208 33.9776 29.6989 
43 1 48.2208 35.6291 32.0344 
44 1 46.7906 33.1519 32.0344 
45 1 49.6509 31.5005 29.6989 
46 1 51.0811 33.9776 29.6989 
47 1 51.0811 35.6291 32.0344 
48 1 49.6509 33.1519 32.0344 
49 1 52.5113 31.5005 29.6989 
50 1 53.9415 33.9776 29.6989 
51 1 53.9415 35.6291 32.0344 
52 1 52.5113 33.1519 32.0344 
53 1 55.3717 31.5005 29.6989 
54 1 56.8019 33.9776 29.6989 
55 1 56.8019 35.6291 32.0344 
56 1 55.3717 33.1519 32.0344 
57 1 58.2321 31.5005 29.6989 
58 1 59.6623 33.9776 29.6989 
59 1 59.6623 35.6291 32.0344 
60 1 58.2321 33.1519 32.0344 
61 1 61.0924 31.5005 29.6989 
62 1 62.5226 33.9776 29.6989 
63 1 62.5226 35.6291 32.0344 
64 1 61.0924 33.1519 32.0344 
65 1 63.9528 31.5005 29.6989 
66 1 65.383 33.9776 29.6989 
67 1 65.383 35.6291 32.0344 
68 1 63.9528 33.1519 32.0344 
69 1 18.1868 36.4548 29.6989 
70 1 19.617 38.9319 29.6989 
71 1 19.617 40.5834 32.0344 
72 1 18.1868 38.1062 32.0344 
73 1 21.0472 36.4548 29.6989 
74 1 22.4774 38.9319 29.6989 
75 1 22.4774 40.5834 32.0344 
76 1 21.0472 38.1062 32.0344 
77 1 23.9076 36.4548 29.6989 
78 1 25.3377 38.9319 29.6989 
79 1 25.3377 40.5834 32.0344 
80 1 23.9076 38.1062 32.0344 
81 1 26.7679 36.4548 29.6989 
82 1 28.1981 38.9319 29.6989 
83 1 28.1981 40.5834 32.0344 
84 1 26.7679 38.1062 32.0344 
85 1 29.6283 36.4548 29.6989 
86 1 31.0585 38.9319 29.6989 
87 1 31.0585 40.5834 32.0344 
88 1 29.6283 38.1062 32.0344 
89 1 32.4887 36.4548 29.6989 
90 1 33.9189 38.9319 29.6989 
91 1 33.9189 40.5834 32.0344 
92 1 32.4887 38.1062 32.0344 
93 1 35.3491 36.4548 29.6989 
94 1 36.7792 38.9319 29.6989 
95 1 36.7792 40.5834 32.0344 
96 1 35.3491 38.1062 32.0344 
97 1 38.2094 36.4548 29.6989 
98 1 39.6396 38.9319 29.6989 
99 1 39.6396 40.5834 32.0344 
100 1 38.2094 38.1062 32.0344 
101 1 41.0698 36.4548 29.6989 
102 1 42.5 38.9319 29.6989 
103 1 42.5 40.5834 32.0344 
104 1 41.0698 38.1062 32.0344 
105 1 43.9302 36.4548 29.6989 
106 1 45.3604 38.9319 29.6989 
107 1 45.3604 40.5834 32.0344 
108 1 43.9302 38.1062 32.0344 
109 1 46.7906 36.4548 29.6989 
110 1 48.2208 38.9319 29.6989 
111 1 48.2208 40.5834 32.0344 
112 1 46.7906 38.1062 32.0344 
113 1 49.6509 36.4548 29.6989 
114 1 51.0811 38.9319 29.6989 
115 1 51.0811 40.5834 32.0344 
116 1 49.6509 38.1062 32.0344 
117 1 52.5113 36.4548 29.6989 
118 1 53.9415 38.9319 29.6989 
119 1 53.9415 40.5834 32.0344 
120 1 52.5113 38.1062 32.0344 
121 1 55.3717 36.4548 29.6989 
122 1 56.8019 38.9319 29.6989 
123 1 56.8019 40.5834 32.0344 
124 1 55.3717 38.1062 32.0344 
125 1 58.2321 36.4548 29.6989 
126 1 59.6623 38.9319 29.6989 
127 1 59.6623 40.5834 32.0344 
128 1 58.2321 38.1062 32.0344 
129 1 61.0924 36.4548 29.6989 
130 1 62.5226 38.9319 29.6989 
131 1 62.5226 40.5834 32.0344 
132 1 61.0924 38.1062 32.0344 
133 1 63.9528 36.4548 29.6989 
134 1 65.383 38.9319 29.6989 
135 1 65.383 40.5834 32.0344 
136 1 63.9528 38.1062 32.0344 
137 1 18.1868 41.4091 29.6989 
138 1 19.617 43.8863 29.6989 
139 1 19.617 45.5377 32.0344 
140 1 18.1868 43.0605 32.0344 
141 1 21.0472 41.4091 29.6989 
142 1 22.4774 43.8863 29.6989 
143 1 22.4774 45.5377 32.0344 
144 1 21.0472 43.0605 32.0344 
145 1 23.9076 41.4091 29.6989 
146 1 25.3377 43.8863 29.6989 
147 1 25.3377 45.5377 32.0344 
148 1 23.9076 43.0605 32.0344 
149 1 26.7679 41.4091 29.6989 
150 1 28.1981 43.8863 29.6989 
151 1 28.1981 45.5377 32.0344 
152 1 26.7679 43.0605 32.0344 
153 1 29.6283 41.4091 29.6989 
154 1 31.0585 43.8863 29.6989 
155 1 31.0585 45.5377 32.0344 
156 1 29.6283 43.0605 32.0344 
157 1 32.4887 41.4091 29.6989 
158 1 33.9189 43.8863 29.6989 
159 1 33.9189 45.5377 32.0344 
160 1 32.4887 43.0605 32.0344 
161 1 35.3491 41.4091 29.6989 
162 1 36.7792 43.8863 29.6989 
163 1 36.7792 45.5377 32.0344 
164 1 35.3491 43.0605 32.0344 
165 1 38.2094 41.4091 29.6989 
166 1 39.6396 43.8863 29.6989 
167 1 39.6396 45.5377 32.0344 
168 1 38.2094 43.0605 32.0344 
169 1 41.0698 41.4091 29.6989 
170 1 42.5 43.8863 29.6989 
171 1 42.5 45.5377 32.0344 
172 1 41.0698 43.0605 32.0344 
173 1 43.9302 41.4091 29.6989 
174 1 45.3604 43.8863 29.6989 
175 1 45.3604 45.5377 32.0344 
176 1 43.9302 43.0605 32.0344 
177 1 46.7906 41.4091 29.6989 
178 1 48.2208 43.8863 29.6989 
179 1 48.2208 45.5377 32.0344 
180 1 46.7906 43.0605 32.0344 
181 1 49.6509 41.4091 29.6989 
182 1 51.0811 43.8863 29.6989 
183 1 51.0811 45.5377 32.0344 
184 1 49.6509 43.0605 32.0344 
185 1 52.5113 41.4091 29.6989 
186 1 53.9415 43.8863 29.6989 
187 1 53.9415 45.5377 32.0344 
188 1 52.5113 43.0605 32.0344 
189 1 55.3717 41.4091 29.6989 
190 1 56.8019 43.8863 29.6989 
191 1 56.8019 45.5377 32.0344 
192 1 55.3717 43.0605 32.0344 
193 1 58.2321 41.4091 29.6989 
194 1 59.6623 43.8863 29.6989 
195 1 59.6623 45.5377 32.0344 
196 1 58.2321 43.0605 32.0344 
197 1 61.0924 41.4091 29.6989 
198 1 62.5226 43.8863 29.6989 
199 1 62.5226 45.5377 32.0344 
200 1 61.0924 43.0605 32.0344 
201 1 63.9528 41.4091 29.6989 
202 1 65.383 43.8863 29.6989 
203 1 65.383 45.5377 32.0344 
204 1 63.9528 43.0605 32.0344 
205 1 18.1868 46.3634 29.6989 
206 1 19.617 48.8406 29.6989 
207 1 19.617 50.492 32.0344 
208 1 18.1868 48.0149 32.0344 
209 1 21.0472 46.3634 29.6989 
210 1 22.4774 48.8406 29.6989 
211 1 22.4774 50.492 32.0344 
212 1 21.0472 48.0149 32.0344 
213 1 23.9076 46.3634 29.6989 
214 1 25.3377 48.8406 29.6989 
215 1 25.3377 50.492 32.0344 
216 1 23.9076 48.0149 32.0344 
217 1 26.7679 46.3634 29.6989 
218 1 28.1981 48.8406 29.6989 
219 1 28.1981 50.492 32.0344 
220 1 26.7679 48.0149 32.0344 
221 1 29.6283 46.3634 29.6989 
222 1 31.0585 48.8406 29.6989 
223 1 31.0585 50.492 32.0344 
224 1 29.6283 48.0149 32.0344 
225 1 32.4887 46.3634 29.6989 
226 1 33.9189 48.8406 29.6989 
227 1 33.9189 50.492 32.0344 
228 1 32.4887 48.0149 32.0344 
229 1 35.3491 46.3634 29.6989 
230 1 36.7792 48.8406 29.6989 
231 1 36.7792 50.492 32.0344 
232 1 35.3491 48.0149 32.0344 
233 1 38.2094 46.3634 29.6989 
234 1 39.6396 48.8406 29.6989 
235 1 39.6396 50.492 32.0344 
236 1 38.2094 48.0149 32.0344 
237 1 41.0698 46.3634 29.6989 
238 1 42.5 48.8406 29.6989 
239 1 42.5 50.492 32.0344 
240 1 41.0698 48.0149 32.0344 
241 1 43.9302 46.3634 29.6989 
242 1 45.3604 48.8406 29.6989 
243 1 45.3604 50.492 32.0344 
244 1 43.9302 48.0149 32.0344 
245 1 46.7906 46.3634 29.6989 
246 1 48.2208 48.8406 29.6989 
247 1 48.2208 50.492 32.0344 
248 1 46.7906 48.0149 32.0344 
249 1 49.6509 46.3634 29.6989 
250 1 51.0811 48.8406 29.6989 
251 1 51.0811 50.492 32.0344 
252 1 49.6509 48.0149 32.0344 
253 1 52.5113 46.3634 29.6989 
254 1 53.9415 48.8406 29.6989 
255 1 53.9415 50.492 32.0344 
256 1 52.5113 48.0149 32.0344 
257 1 55.3717 46.3634 29.6989 
258 1 56.8019 48.8406 29.6989 
259 1 56.8019 50.492 32.0344 
260 1 55.3717 48.0149 32.0344 
261 1 58.2321 46.3634 29.6989 
262 1 59.6623 48.8406 29.6989 
263 1 59.6623 50.492 32.0344 
264 1 58.2321 48.0149 32.0344 
265 1 61.0924 46.3634 29.6989 
266 1 62.5226 48.8406 29.6989 
267 1 62.5226 50.492 32.0344 
268 1 61.0924 48.0149 32.0344 
269 1 63.9528 46.3634 29.6989 
270 1 65.383 48.8406 29.6989 
271 1 65.383 50.492 32.0344 
272 1 63.9528 48.0149 32.0344 
273 1 18.1868 51.3177 29.6989 
274 1 19.617 53.7949 29.6989 
275 1 19.617 55.4463 32.0344 
276 1 18.1868 52.9692 32.0344 
277 1 21.0472 51.3177 29.6989 
278 1 22.4774 53.7949 29.6989 
279 1 22.4774 55.4463 32.0344 
280 1 21.0472 52.9692 32.0344 
281 1 23.9076 51.3177 29.6989 
282 1 25.3377 53.7949 29.6989 
283 1 25.3377 55.4463 32.0344 
284 1 23.9076 52.9692 32.0344 
285 1 26.7679 51.3177 29.6989 
286 1 28.1981 53.7949 29.6989 
287 1 28.1981 55.4463 32.0344 
288 1 26.7679 52.9692 32.0344 
289 1 29.6283 51.3177 29.6989 
290 1 31.0585 53.7949 29.6989 
291 1 31.0585 55.4463 32.0344 
292 1 29.6283 52.9692 32.0344 
293 1 32.4887 51.3177 29.6989 
294 1 33.9189 53.7949 29.6989 
295 1 33.9189 55.4463 32.0344 
296 1 32.4887 52.9692 32.0344 
297 1 35.3491 51.3177 29.6989 
298 1 36.7792 53.7949 29.6989 
299 1 36.7792 55.4463 32.0344 
300 1 35.3491 52.9692 32.0344 
301 1 38.2094 51.3177 29.6989 
302 1 39.6396 53.7949 29.6989 
303 1 39.6396 55.4463 32.0344 
304 1 38.2094 52.9692 32.0344 
305 1 41.0698 51.3177 29.6989 
306 1 42.5 53.7949 29.6989 
307 1 42.5 55.4463 32.0344 
308 1 41.0698 52.9692 32.0344 
309 1 43.9302 51.3177 29.6989 
310 1 45.3604 53.7949 29.6989 
311 1 45.3604 55.4463 32.0344 
312 1 43.9302 52.9692 32.0344 
313 1 46.7906 51.3177 29.6989 
314 1 48.2208 53.7949 29.6989 
315 1 48.2208 55.4463 32.0344 
316 1 46.7906 52.9692 32.0344 
317 1 49.6509 51.3177 29.6989 
318 1 51.0811 53.7949 29.6989 
319 1 51.0811 55.4463 32.0344 
320 1 49.6509 52.9692 32.0344 
321 1 52.5113 51.3177 29.6989 
322 1 53.9415 53.7949 29.6989 
323 1 53.9415 55.4463 32.0344 
324 1 52.5113 52.9692 32.0344 
325 1 55.3717 51.3177 29.6989 
326 1 56.8019 53.7949 29.6989 
327 1 56.8019 55.4463 32.0344 
328 1 55.3717 52.9692 32.0344 
329 1 58.2321 51.3177 29.6989 
330 1 59.6623 53.7949 29.6989 
331 1 59.6623 55.4463 32.0344 
332 1 58.2321 52.9692 32.0344 
333 1 61.0924 51.3177 29.6989 
334 1 62.5226 53.7949 29.6989 
335 1 62.5226 55.4463 32.0344 
336 1 61.0924 52.9692 32.0344 
337 1 63.9528 51.3177 29.6989 
338 1 65.383 53.7949 29.6989 
339 1 65.383 55.4463 32.0344 
340 1 63.9528 52.9692 32.0344 
341 1 18.1868 56.272 29.6989 
342 1 19.617 58.7492 29.6989 
343 1 19.617 60.4006 32.0344 
344 1 18.1868 57.9235 32.0344 
345 1 21.0472 56.272 29.6989 
346 1 22.4774 58.7492 29.6989 
347 1 22.4774 60.4006 32.0344 
348 1 21.0472 57.9235 32.0344 
349 1 23.9076 56.272 29.6989 
350 1 25.3377 58.7492 29.6989 
351 1 25.3377 60.4006 32.0344 
352 1 23.9076 57.9235 32.0344 
353 1 26.7679 56.272 29.6989 
354 1 28.1981 58.7492 29.6989 
355 1 28.1981 60.4006 32.0344 
356 1 26.7679 57.9235 32.0344 
357 1 29.6283 56.272 29.6989 
358 1 31.0585 58.7492 29.6989 
359 1 31.0585 60.4006 32.0344 
360 1 29.6283 57.9235 32.0344 
361 1 32.4887 56.272 29.6989 
362 1 33.9189 58.7492 29.6989 
363 1 33.9189 60.4006 32.0344 
364 1 32.4887 57.9235 32.0344 
365 1 35.3491 56.272 29.6989 
366 1 36.7792 58.7492 29.6989 
367 1 36.7792 60.4006 32.0344 
368 1 35.3491 57.9235 32.0344 
369 1 38.2094 56.272 29.6989 
370 1 39.6396 58.7492 29.6989 
371 1 39.6396 60.4006 32.0344 
372 1 38.2094 57.9235 32.0344 
373 1 41.0698 56.272 29.6989 
374 1 42.5 58.7492 29.6989 
375 1 42.5 60.4006 32.0344 
376 1 41.0698 57.9235 32.0344 
377 1 43.9302 56.272 29.6989 
378 1 45.3604 58.7492 29.6989 
379 1 45.3604 60.4006 32.0344 
380 1 43.9302 57.9235 32.0344 
381 1 46.7906 56.272 29.6989 
382 1 48.2208 58.7492 29.6989 
383 1 48.2208 60.4006 32.0344 
384 1 46.7906 57.9235 32.0344 
385 1 49.6509 56.272 29.6989 
386 1 51.0811 58.7492 29.6989 
387 1 51.0811 60.4006 32.0344 
388 1 49.6509 57.9235 32.0344 
389 1 52.5113 56.272 29.6989 
390 1 53.9415 58.7492 29.6989 
391 1 53.9415 60.4006 32.0344 
392 1 52.5113 57.9235 32.0344 
393 1 55.3717 56.272 29.6989 
394 1 56.8019 58.7492 29.6989 
395 1 56.8019 60.4006 32.0344 
396 1 55.3717 57.9235 32.0344 
397 1 58.2321 56.272 29.6989 
398 1 59.6623 58.7492 29.6989 
399 1 59.6623 60.4006 32.0344 
400 1 58.2321 57.9235 32.0344 
401 1 61.0924 56.272 29.6989 
402 1 62.5226 58.7492 29.6989 
403 1 62.5226 60.4006 32.0344 
404 1 61.0924 57.9235 32.0344 
405 1 63.9528 56.272 29.6989 
406 1 65.383 58.7492 29.6989 
407 1 65.383 60.4006 32.0344 
408 1 63.9528 57.9235 32.0344 
409 1 18.1868 61.2264 29.6989 
410 1 19.617 63.7035 29.6989 
411 1 19.617 65.355 32.0344 
412 1 18.1868 62.8778 32.0344 
413 1 21.0472 61.2264 29.6989 
414 1 22.4774 63.7035 29.6989 
415 1 22.4774 65.355 32.0344 
416 1 21.0472 62.8778 32.0344 
417 1 23.9076 61.2264 29.6989 
418 1 25.3377 63.7035 29.6989 
419 1 25.3377 65.355 32.0344 
420 1 23.9076 62.8778 32.0344 
421 1 26.7679 61.2264 29.6989 
422 1 28.1981 63.7035 29.6989 
423 1 28.1981 65.355 32.0344 
424 1 26.7679 62.8778 32.0344 
425 1 29.6283 61.2264 29.6989 
426 1 31.0585 63.7035 29.6989 
427 1 31.0585 65.355 32.0344 
428 1 29.6283 62.8778 32.0344 
429 1 32.4887 61.2264 29.6989 
430 1 33.9189 63.7035 29.6989 
431 1 33.9189 65.355 32.0344 
432 1 32.4887 62.8778 32.0344 
433 1 35.3491 61.2264 29.6989 
434 1 36.7792 63.7035 29.6989 
435 1 36.7792 65.355 32.0344 
436 1 35.3491 62.8778 32.0344 
437 1 38.2094 61.2264 29.6989 
438 1 39.6396 63.7035 29.6989 
439 1 39.6396 65.355 32.0344 
440 1 38.2094 62.8778 32.0344 
441 1 41.0698 61.2264 29.6989 
442 1 42.5 63.7035 29.6989 
443 1 42.5 65.355 32.0344 
444 1 41.0698 62.8778 32.0344 
445 1 43.9302 61.2264 29.6989 
446 1 45.3604 63.7035 29.6989 
447 1 45.3604 65.355 32.0344 
448 1 43.9302 62.8778 32.0344 
449 1 46.7906 61.2264 29.6989 
450 1 48.2208 63.7035 29.6989 
451 1 48.2208 65.355 32.0344 
452 1 46.7906 62.8778 32.0344 
453 1 49.6509 61.2264 29.6989 
454 1 51.0811 63.7035 29.6989 
455 1 51.0811 65.355 32.0344 
456 1 49.6509 62.8778 32.0344 
457 1 52.5113 61.2264 29.6989 
458 1 53.9415 63.7035 29.6989 
459 1 53.9415 65.355 32.0344 
460 1 52.5113 62.8778 32.0344 
461 1 55.3717 61.2264 29.6989 
462 1 56.8019 63.7035 29.6989 
463 1 56.8019 65.355 32.0344 
464 1 55.3717 62.8778 32.0344 
465 1 58.2321 61.2264 29.6989 
466 1 59.6623 63.7035 29.6989 
467 1 59.6623 65.355 32.0344 
468 1 58.2321 62.8778 32.0344 
469 1 61.0924 61.2264 29.6989 
470 1 62.5226 63.7035 29.6989 
471 1 62.5226 65.355 32.0344 
472 1 61.0924 62.8778 32.0344 
473 1 63.9528 61.2264 29.6989 
474 1 65.383 63.7035 29.6989 
475 1 65.383 65.355 32.0344 
476 1 63.9528 62.8778 32.0344 
477 1 18.1868 66.1807 29.6989 
478 1 19.617 68.6578 29.6989 
479 1 19.617 70.3093 32.0344 
480 1 18.1868 67.8321 32.0344 
481 1 21.0472 66.1807 29.6989 
482 1 22.4774 68.6578 29.6989 
483 1 22.4774 70.3093 32.0344 
484 1 21.0472 67.8321 32.0344 
485 1 23.9076 66.1807 29.6989 
486 1 25.3377 68.6578 29.6989 
487 1 25.3377 70.3093 32.0344 
488 1 23.9076 67.8321 32.0344 
489 1 26.7679 66.1807 29.6989 
490 1 28.1981 68.6578 29.6989 
491 1 28.1981 70.3093 32.0344 
492 1 26.7679 67.8321 32.0344 
493 1 29.6283 66.1807 29.6989 
494 1 31.0585 68.6578 29.6989 
495 1 31.0585 70.3093 32.0344 
496 1 29.6283 67.8321 32.0344 
497 1 32.4887 66.1807 29.6989 
498 1 33.9189 68.6578 29.6989 
499 1 33.9189 70.3093 32.0344 
500 1 32.4887 67.8321 32.0344 
501 1 35.3491 66.1807 29.6989 
502 1 36.7792 68.6578 29.6989 
503 1 36.7792 70.3093 32.0344 
504 1 35.3491 67.8321 32.0344 
505 1 38.2094 66.1807 29.6989 
506 1 39.6396 68.6578 29.6989 
507 1 39.6396 70.3093 32.0344 
508 1 38.2094 67.8321 32.0344 
509 1 41.0698 66.1807 29.6989 
510 1 42.5 68.6578 29.6989 
511 1 42.5 70.3093 32.0344 
512 1 41.0698 67.8321 32.0344 
513 1 43.9302 66.1807 29.6989 
514 1 45.3604 68.6578 29.6989 
515 1 45.3604 70.3093 32.0344 
516 1 43.9302 67.8321 32.0344 
517 1 46.7906 66.1807 29.6989 
518 1 48.2208 68.6578 29.6989 
519 1 48.2208 70.3093 32.0344 
520 1 46.7906 67.8321 32.0344 
521 1 49.6509 66.1807 29.6989 
522 1 51.0811 68.6578 29.6989 
523 1 51.0811 70.3093 32.0344 
524 1 49.6509 67.8321 32.0344 
525 1 52.5113 66.1807 29.6989 
526 1 53.9415 68.6578 29.6989 
527 1 53.9415 70.3093 32.0344 
528 1 52.5113 67.8321 32.0344 
529 1 55.3717 66.1807 29.6989 
530 1 56.8019 68.6578 29.6989 
531 1 56.8019 70.3093 32.0344 
532 1 55.3717 67.8321 32.0344 
533 1 58.2321 66.1807 29.6989 
534 1 59.6623 68.6578 29.6989 
535 1 59.6623 70.3093 32.0344 
536 1 58.2321 67.8321 32.0344 
537 1 61.0924 66.1807 29.6989 
538 1 62.5226 68.6578 29.6989 
539 1 62.5226 70.3093 32.0344 
540 1 61.0924 67.8321 32.0344 
541 1 63.9528 66.1807 29.6989 
542 1 65.383 68.6578 29.6989 
543 1 65.383 70.3093 32.0344 
544 1 63.9528 67.8321 32.0344 
545 1 18.1868 71.135 29.6989 
546 1 19.617 73.6122 29.6989 
547 1 19.617 75.2636 32.0344 
548 1 18.1868 72.7864 32.0344 
549 1 21.0472 71.135 29.6989 
550 1 22.4774 73.6122 29.6989 
551 1 22.4774 75.2636 32.0344 
552 1 21.0472 72.7864 32.0344 
553 1 23.9076 71.135 29.6989 
554 1 25.3377 73.6122 29.6989 
555 1 25.3377 75.2636 32.0344 
556 1 23.9076 72.7864 32.0344 
557 1 26.7679 71.135 29.6989 
558 1 28.1981 73.6122 29.6989 
559 1 28.1981 75.2636 32.0344 
560 1 26.7679 72.7864 32.0344 
561 1 29.6283 71.135 29.6989 
562 1 31.0585 73.6122 29.6989 
563 1 31.0585 75.2636 32.0344 
564 1 29.6283 72.7864 32.0344 
565 1 32.4887 71.135 29.6989 
566 1 33.9189 73.6122 29.6989 
567 1 33.9189 75.2636 32.0344 
568 1 32.4887 72.7864 32.0344 
569 1 35.3491 71.135 29.6989 
570 1 36.7792 73.6122 29.6989 
571 1 36.7792 75.2636 32.0344 
572 1 35.3491 72.7864 32.0344 
573 1 38.2094 71.135 29.6989 
574 1 39.6396 73.6122 29.6989 
575 1 39.6396 75.2636 32.0344 
576 1 38.2094 72.7864 32.0344 
577 1 41.0698 71.135 29.6989 
578 1 42.5 73.6122 29.6989 
579 1 42.5 75.2636 32.0344 
580 1 41.0698 72.7864 32.0344 
581 1 43.9302 71.135 29.6989 
582 1 45.3604 73.6122 29.6989 
583 1 45.3604 75.2636 32.0344 
584 1 43.9302 72.7864 32.0344 
585 1 46.7906 71.135 29.6989 
586 1 48.2208 73.6122 29.6989 
587 1 48.2208 75.2636 32.0344 
588 1 46.7906 72.7864 32.0344 
589 1 49.6509 71.135 29.6989 
590 1 51.0811 73.6122 29.6989 
591 1 51.0811 75.2636 32.0344 
592 1 49.6509 72.7864 32.0344 
593 1 52.5113 71.135 29.6989 
594 1 53.9415 73.6122 29.6989 
595 1 53.9415 75.2636 32.0344 
596 1 52.5113 72.7864 32.0344 
597 1 55.3717 71.135 29.6989 
598 1 56.8019 73.6122 29.6989 
599 1 56.8019 75.2636 32.0344 
600 1 55.3717 72.7864 32.0344 
601 1 58.2321 71.135 29.6989 
602 1 59.6623 73.6122 29.6989 
603 1 59.6623 75.2636 32.0344 
604 1 58.2321 72.7864 32.0344 
605 1 61.0924 71.135 29.6989 
606 1 62.5226 73.6122 29.6989 
607 1 62.5226 75.2636 32.0344 
608 1 61.0924 72.7864 32.0344 
609 1 63.9528 71.135 29.6989 
610 1 65.383 73.6122 29.6989 
611 1 65.383 75.2636 32.0344 
612 1 63.9528 72.7864 32.0344 
613 1 18.1868 76.0893 29.6989 
614 1 19.617 78.5665 29.6989 
615 1 19.617 80.2179 32.0344 
616 1 18.1868 77.7408 32.0344 
617 1 21.0472 76.0893 29.6989 
618 1 22.4774 78.5665 29.6989 
619 1 22.4774 80.2179 32.0344 
620 1 21.0472 77.7408 32.0344 
621 1 23.9076 76.0893 29.6989 
622 1 25.3377 78.5665 29.6989 
623 1 25.3377 80.2179 32.0344 
624 1 23.9076 77.7408 32.0344 
625 1 26.7679 76.0893 29.6989 
626 1 28.1981 78.5665 29.6989 
627 1 28.1981 80.2179 32.0344 
628 1 26.7679 77.7408 32.0344 
629 1 29.6283 76.0893 29.6989 
630 1 31.0585 78.5665 29.6989 
631 1 31.0585 80.2179 32.0344 
632 1 29.6283 77.7408 32.0344 
633 1 32.4887 76.0893 29.6989 
634 1 33.9189 78.5665 29.6989 
635 1 33.9189 80.2179 32.0344 
636 1 32.4887 77.7408 32.0344 
637 1 35.3491 76.0893 29.6989 
638 1 36.7792 78.5665 29.6989 
639 1 36.7792 80.2179 32.0344 
640 1 35.3491 77.7408 32.0344 
641 1 38.2094 76.0893 29.6989 
642 1 39.6396 78.5665 29.6989 
643 1 39.6396 80.2179 32.0344 
644 1 38.2094 77.7408 32.0344 
645 1 41.0698 76.0893 29.6989 
646 1 42.5 78.5665 29.6989 
647 1 42.5 80.2179 32.0344 
648 1 41.0698 77.7408 32.0344 
649 1 43.9302 76.0893 29.6989 
650 1 45.3604 78.5665 29.6989 
651 1 45.3604 80.2179 32.0344 
652 1 43.9302 77.7408 32.0344 
653 1 46.7906 76.0893 29.6989 
654 1 48.2208 78.5665 29.6989 
655 1 48.2208 80.2179 32.0344 
656 1 46.7906 77.7408 32.0344 
657 1 49.6509 76.0893 29.6989 
658 1 51.0811 78.5665 29.6989 
659 1 51.0811 80.2179 32.0344 
660 1 49.6509 77.7408 32.0344 
661 1 52.5113 76.0893 29.6989 
662 1 53.9415 78.5665 29.6989 
663 1 53.9415 80.2179 32.0344 
664 1 52.5113 77.7408 32.0344 
665 1 55.3717 76.0893 29.6989 
666 1 56.8019 78.5665 29.6989 
667 1 56.8019 80.2179 32.0344 
668 1 55.3717 77.7408 32.0344 
669 1 58.2321 76.0893 29.6989 
670 1 59.6623 78.5665 29.6989 
671 1 59.6623 80.2179 32.0344 
672 1 58.2321 77.7408 32.0344 
673 1 61.0924 76.0893 29.6989 
674 1 62.5226 78.5665 29.6989 
675 1 62.5226 80.2179 32.0344 
676 1 61.0924 77.7408 32.0344 
677 1 63.9528 76.0893 29.6989 
678 1 65.383 78.5665 29.6989 
679 1 65.383 80.2179 32.0344 
680 1 63.9528 77.7408 32.0344 
681 1 18.1868 81.0436 29.6989 
682 1 19.617 83.5208 29.6989 
683 1 19.617 85.1722 32.0344 
684 1 18.1868 82.6951 32.0344 
685 1 21.0472 81.0436 29.6989 
686 1 22.4774 83.5208 29.6989 
687 1 22.4774 85.1722 32.0344 
688 1 21.0472 82.6951 32.0344 
689 1 23.9076 81.0436 29.6989 
690 1 25.3377 83.5208 29.6989 
691 1 25.3377 85.1722 32.0344 
692 1 23.9076 82.6951 32.0344 
693 1 26.7679 81.0436 29.6989 
694 1 28.1981 83.5208 29.6989 
695 1 28.1981 85.1722 32.0344 
696 1 26.7679 82.6951 32.0344 
697 1 29.6283 81.0436 29.6989 
698 1 31.0585 83.5208 29.6989 
699 1 31.0585 85.1722 32.0344 
700 1 29.6283 82.6951 32.0344 
701 1 32.4887 81.0436 29.6989 
702 1 33.9189 83.5208 29.6989 
703 1 33.9189 85.1722 32.0344 
704 1 32.4887 82.6951 32.0344 
705 1 35.3491 81.0436 29.6989 
706 1 36.7792 83.5208 29.6989 
707 1 36.7792 85.1722 32.0344 
708 1 35.3491 82.6951 32.0344 
709 1 38.2094 81.0436 29.6989 
710 1 39.6396 83.5208 29.6989 
711 1 39.6396 85.1722 32.0344 
712 1 38.2094 82.6951 32.0344 
713 1 41.0698 81.0436 29.6989 
714 1 42.5 83.5208 29.6989 
715 1 42.5 85.1722 32.0344 
716 1 41.0698 82.6951 32.0344 
717 1 43.9302 81.0436 29.6989 
718 1 45.3604 83.5208 29.6989 
719 1 45.3604 85.1722 32.0344 
720 1 43.9302 82.6951 32.0344 
721 1 46.7906 81.0436 29.6989 
722 1 48.2208 83.5208 29.6989 
723 1 48.2208 85.1722 32.0344 
724 1 46.7906 82.6951 32.0344 
725 1 49.6509 81.0436 29.6989 
726 1 51.0811 83.5208 29.6989 
727 1 51.0811 85.1722 32.0344 
728 1 49.6509 82.6951 32.0344 
729 1 52.5113 81.0436 29.6989 
730 1 53.9415 83.5208 29.6989 
731 1 53.9415 85.1722 32.0344 
732 1 52.5113 82.6951 32.0344 
733 1 55.3717 81.0436 29.6989 
734 1 56.8019 83.5208 29.6989 
735 1 56.8019 85.1722 32.0344 
736 1 55.3717 82.6951 32.0344 
737 1 58.2321 81.0436 29.6989 
738 1 59.6623 83.5208 29.6989 
739 1 59.6623 85.1722 32.0344 
740 1 58.2321 82.6951 32.0344 
741 1 61.0924 81.0436 29.6989 
742 1 62.5226 83.5208 29.6989 
743 1 62.5226 85.1722 32.0344 
744 1 61.0924 82.6951 32.0344 
745 1 63.9528 81.0436 29.6989 
746 1 65.383 83.5208 29.6989 
747 1 65.383 85.1722 32.0344 
748 1 63.9528 82.6951 32.0344 
749 1 18.1868 85.998 29.6989 
750 1 19.617 88.4751 29.6989 
751 1 19.617 90.1266 32.0344 
752 1 18.1868 87.6494 32.0344 
753 1 21.0472 85.998 29.6989 
754 1 22.4774 88.4751 29.6989 
755 1 22.4774 90.1266 32.0344 
756 1 21.0472 87.6494 32.0344 
757 1 23.9076 85.998 29.6989 
758 1 25.3377 88.4751 29.6989 
759 1 25.3377 90.1266 32.0344 
760 1 23.9076 87.6494 32.0344 
761 1 26.7679 85.998 29.6989 
762 1 28.1981 88.4751 29.6989 
763 1 28.1981 90.1266 32.0344 
764 1 26.7679 87.6494 32.0344 
765 1 29.6283 85.998 29.6989 
766 1 31.0585 88.4751 29.6989 
767 1 31.0585 90.1266 32.0344 
768 1 29.6283 87.6494 32.0344 
769 1 32.4887 85.998 29.6989 
770 1 33.9189 88.4751 29.6989 
771 1 33.9189 90.1266 32.0344 
772 1 32.4887 87.6494 32.0344 
773 1 35.3491 85.998 29.6989 
774 1 36.7792 88.4751 29.6989 
775 1 36.7792 90.1266 32.0344 
776 1 35.3491 87.6494 32.0344 
777 1 38.2094 85.998 29.6989 
778 1 39.6396 88.4751 29.6989 
779 1 39.6396 90.1266 32.0344 
780 1 38.2094 87.6494 32.0344 
781 1 41.0698 85.998 29.6989 
782 1 42.5 88.4751 29.6989 
783 1 42.5 90.1266 32.0344 
784 1 41.0698 87.6494 32.0344 
785 1 43.9302 85.998 29.6989 
786 1 45.3604 88.4751 29.6989 
787 1 45.3604 90.1266 32.0344 
788 1 43.9302 87.6494 32.0344 
789 1 46.7906 85.998 29.6989 
790 1 48.2208 88.4751 29.6989 
791 1 48.2208 90.1266 32.0344 
792 1 46.7906 87.6494 32.0344 
793 1 49.6509 85.998 29.6989 
794 1 51.0811 88.4751 29.6989 
795 1 51.0811 90.1266 32.0344 
796 1 49.6509 87.6494 32.0344 
797 1 52.5113 85.998 29.6989 
798 1 53.9415 88.4751 29.6989 
799 1 53.9415 90.1266 32.0344 
800 1 52.5113 87.6494 32.0344 
801 1 55.3717 85.998 29.6989 
802 1 56.8019 88.4751 29.6989 
803 1 56.8019 90.1266 32.0344 
804 1 55.3717 87.6494 32.0344 
805 1 58.2321 85.998 29.6989 
806 1 59.6623 88.4751 29.6989 
807 1 59.6623 90.1266 32.0344 
808 1 58.2321 87.6494 32.0344 
809 1 61.0924 85.998 29.6989 
810 1 62.5226 88.4751 29.6989 
811 1 62.5226 90.1266 32.0344 
812 1 61.0924 87.6494 32.0344 
813 1 63.9528 85.998 29.6989 
814 1 65.383 88.4751 29.6989 
815 1 65.383 90.1266 32.0344 
816 1 63.9528 87.6494 32.0344 
817 1 18.1868 90.9523 29.6989 
818 1 19.617 93.4294 29.6989 
819 1 19.617 95.0809 32.0344 
820 1 18.1868 92.6037 32.0344 
821 1 21.0472 90.9523 29.6989 
822 1 22.4774 93.4294 29.6989 
823 1 22.4774 95.0809 32.0344 
824 1 21.0472 92.6037 32.0344 
825 1 23.9076 90.9523 29.6989 
826 1 25.3377 93.4294 29.6989 
827 1 25.3377 95.0809 32.0344 
828 1 23.9076 92.6037 32.0344 
829 1 26.7679 90.9523 29.6989 
830 1 28.1981 93.4294 29.6989 
831 1 28.1981 95.0809 32.0344 
832 1 26.7679 92.6037 32.0344 
833 1 29.6283 90.9523 29.6989 
834 1 31.0585 93.4294 29.6989 
835 1 31.0585 95.0809 32.0344 
836 1 29.6283 92.6037 32.0344 
837 1 32.4887 90.9523 29.6989 
838 1 33.9189 93.4294 29.6989 
839 1 33.9189 95.0809 32.0344 
840 1 32.4887 92.6037 32.0344 
841 1 35.3491 90.9523 29.6989 
842 1 36.7792 93.4294 29.6989 
843 1 36.7792 95.0809 32.0344 
844 1 35.3491 92.6037 32.0344 
845 1 38.2094 90.9523 29.6989 
846 1 39.6396 93.4294 29.6989 
847 1 39.6396 95.0809 32.0344 
848 1 38.2094 92.6037 32.0344 
849 1 41.0698 90.9523 29.6989 
850 1 42.5 93.4294 29.6989 
851 1 42.5 95.0809 32.0344 
852 1 41.0698 92.6037 32.0344 
853 1 43.9302 90.9523 29.6989 
854 1 45.3604 93.4294 29.6989 
855 1 45.3604 95.0809 32.0344 
856 1 43.9302 92.6037 32.0344 
857 1 46.7906 90.9523 29.6989 
858 1 48.2208 93.4294 29.6989 
859 1 48.2208 95.0809 32.0344 
860 1 46.7906 92.6037 32.0344 
861 1 49.6509 90.9523 29.6989 
862 1 51.0811 93.4294 29.6989 
863 1 51.0811 95.0809 32.0344 
864 1 49.6509 92.6037 32.0344 
865 1 52.5113 90.9523 29.6989 
866 1 53.9415 93.4294 29.6989 
867 1 53.9415 95.0809 32.0344 
868 1 52.5113 92.6037 32.0344 
869 1 55.3717 90.9523 29.6989 
870 1 56.8019 93.4294 29.6989 
871 1 56.8019 95.0809 32.0344 
872 1 55.3717 92.6037 32.0344 
873 1 58.2321 90.9523 29.6989 
874 1 59.6623 93.4294 29.6989 
875 1 59.6623 95.0809 32.0344 
876 1 58.2321 92.6037 32.0344 
877 1 61.0924 90.9523 29.6989 
878 1 62.5226 93.4294 29.6989 
879 1 62.5226 95.0809 32.0344 
880 1 61.0924 92.6037 32.0344 
881 1 63.9528 90.9523 29.6989 
882 1 65.383 93.4294 29.6989 
883 1 65.383 95.0809 32.0344 
884 1 63.9528 92.6037 32.0344 
885 1 18.1868 95.9066 29.6989 
886 1 19.617 98.3837 29.6989 
887 1 19.617 100.035 32.0344 
888 1 18.1868 97.558 32.0344 
889 1 21.0472 95.9066 29.6989 
890 1 22.4774 98.3837 29.6989 
891 1 22.4774 100.035 32.0344 
892 1 21.0472 97.558 32.0344 
893 1 23.9076 95.9066 29.6989 
894 1 25.3377 98.3837 29.6989 
895 1 25.3377 100.035 32.0344 
896 1 23.9076 97.558 32.0344 
897 1 26.7679 95.9066 29.6989 
898 1 28.1981 98.3837 29.6989 
899 1 28.1981 100.035 32.0344 
900 1 26.7679 97.558 32.0344 
901 1 29.6283 95.9066 29.6989 
902 1 31.0585 98.3837 29.6989 
903 1 31.0585 100.035 32.0344 
904 1 29.6283 97.558 32.0344 
905 1 32.4887 95.9066 29.6989 
906 1 33.9189 98.3837 29.6989 
907 1 33.9189 100.035 32.0344 
908 1 32.4887 97.558 32.0344 
909 1 35.3491 95.9066 29.6989 
910 1 36.7792 98.3837 29.6989 
911 1 36.7792 100.035 32.0344 
912 1 35.3491 97.558 32.0344 
913 1 38.2094 95.9066 29.6989 
914 1 39.6396 98.3837 29.6989 
915 1 39.6396 100.035 32.0344 
916 1 38.2094 97.558 32.0344 
917 1 41.0698 95.9066 29.6989 
918 1 42.5 98.3837 29.6989 
919 1 42.5 100.035 32.0344 
920 1 41.0698 97.558 32.0344 
921 1 43.9302 95.9066 29.6989 
922 1 45.3604 98.3837 29.6989 
923 1 45.3604 100.035 32.0344 
924 1 43.9302 97.558 32.0344 
925 1 46.7906 95.9066 29.6989 
926 1 48.2208 98.3837 29.6989 
927 1 48.2208 100.035 32.0344 
928 1 46.7906 97.558 32.0344 
929 1 49.6509 95.9066 29.6989 
930 1 51.0811 98.3837 29.6989 
931 1 51.0811 100.035 32.0344 
932 1 49.6509 97.558 32.0344 
933 1 52.5113 95.9066 29.6989 
934 1 53.9415 98.3837 29.6989 
935 1 53.9415 100.035 32.0344 
936 1 52.5113 97.558 32.0344 
937 1 55.3717 95.9066 29.6989 
938 1 56.8019 98.3837 29.6989 
939 1 56.8019 100.035 32.0344 
940 1 55.3717 97.558 32.0344 
941 1 58.2321 95.9066 29.6989 
942 1 59.6623 98.3837 29.6989 
943 1 59.6623 100.035 32.0344 
944 1 58.2321 97.558 32.0344 
945 1 61.0924 95.9066 29.6989 
946 1 62.5226 98.3837 29.6989 
947 1 62.5226 100.035 32.0344 
948 1 61.0924 97.558 32.0344 
949 1 63.9528 95.9066 29.6989 
950 1 65.383 98.3837 29.6989 
951 1 65.383 100.035 32.0344 
952 1 63.9528 97.558 32.0344 
953 1 18.1868 100.861 29.6989 
954 1 19.617 103.338 29.6989 
955 1 19.617 104.99 32.0344 
956 1 18.1868 102.512 32.0344 
957 1 21.0472 100.861 29.6989 
958 1 22.4774 103.338 29.6989 
959 1 22.4774 104.99 32.0344 
960 1 21.0472 102.512 32.0344 
961 1 23.9076 100.861 29.6989 
962 1 25.3377 103.338 29.6989 
963 1 25.3377 104.99 32.0344 
964 1 23.9076 102.512 32.0344 
965 1 26.7679 100.861 29.6989 
966 1 28.1981 103.338 29.6989 
967 1 28.1981 104.99 32.0344 
968 1 26.7679 102.512 32.0344 
969 1 29.6283 100.861 29.6989 
970 1 31.0585 103.338 29.6989 
971 1 31.0585 104.99 32.0344 