ITEM: TIMESTEP
41
ITEM: NUMBER OF ATOMS
19652
ITEM: BOX BOUNDS pp pp pp
8.1521236209342387e+00 7.6847876379065553e+01
8.1521236209342387e+00 7.6847876379065553e+01
8.1521236209342387e+00 7.6847876379065553e+01
ITEM: ATOMS id type xu yu zu 
1 1 8.15212 8.15212 8.15212 
2 1 10.1726 10.1726 8.15212 
3 1 10.1726 8.15212 10.1726 
4 1 8.15212 10.1726 10.1726 
5 1 12.1931 8.15212 8.15212 
6 1 14.2135 10.1726 8.15212 
7 1 14.2135 8.15212 10.1726 
8 1 12.1931 10.1726 10.1726 
9 1 16.234 8.15212 8.15212 
10 1 18.2544 10.1726 8.15212 
11 1 18.2544 8.15212 10.1726 
12 1 16.234 10.1726 10.1726 
13 1 20.2749 8.15212 8.15212 
14 1 22.2954 10.1726 8.15212 
15 1 22.2954 8.15212 10.1726 
16 1 20.2749 10.1726 10.1726 
17 1 24.3158 8.15212 8.15212 
18 1 26.3363 10.1726 8.15212 
19 1 26.3363 8.15212 10.1726 
20 1 24.3158 10.1726 10.1726 
21 1 28.3568 8.15212 8.15212 
22 1 30.3772 10.1726 8.15212 
23 1 30.3772 8.15212 10.1726 
24 1 28.3568 10.1726 10.1726 
25 1 32.3977 8.15212 8.15212 
26 1 34.4181 10.1726 8.15212 
27 1 34.4181 8.15212 10.1726 
28 1 32.3977 10.1726 10.1726 
29 1 36.4386 8.15212 8.15212 
30 1 38.4591 10.1726 8.15212 
31 1 38.4591 8.15212 10.1726 
32 1 36.4386 10.1726 10.1726 
33 1 40.4795 8.15212 8.15212 
34 1 42.5 10.1726 8.15212 
35 1 42.5 8.15212 10.1726 
36 1 40.4795 10.1726 10.1726 
37 1 44.5205 8.15212 8.15212 
38 1 46.5409 10.1726 8.15212 
39 1 46.5409 8.15212 10.1726 
40 1 44.5205 10.1726 10.1726 
41 1 48.5614 8.15212 8.15212 
42 1 50.5819 10.1726 8.15212 
43 1 50.5819 8.15212 10.1726 
44 1 48.5614 10.1726 10.1726 
45 1 52.6023 8.15212 8.15212 
46 1 54.6228 10.1726 8.15212 
47 1 54.6228 8.15212 10.1726 
48 1 52.6023 10.1726 10.1726 
49 1 56.6432 8.15212 8.15212 
50 1 58.6637 10.1726 8.15212 
51 1 58.6637 8.15212 10.1726 
52 1 56.6432 10.1726 10.1726 
53 1 60.6842 8.15212 8.15212 
54 1 62.7046 10.1726 8.15212 
55 1 62.7046 8.15212 10.1726 
56 1 60.6842 10.1726 10.1726 
57 1 64.7251 8.15212 8.15212 
58 1 66.7456 10.1726 8.15212 
59 1 66.7456 8.15212 10.1726 
60 1 64.7251 10.1726 10.1726 
61 1 68.766 8.15212 8.15212 
62 1 70.7865 10.1726 8.15212 
63 1 70.7865 8.15212 10.1726 
64 1 68.766 10.1726 10.1726 
65 1 72.8069 8.15212 8.15212 
66 1 74.8274 10.1726 8.15212 
67 1 74.8274 8.15212 10.1726 
68 1 72.8069 10.1726 10.1726 
69 1 8.15212 12.1931 8.15212 
70 1 10.1726 14.2135 8.15212 
71 1 10.1726 12.1931 10.1726 
72 1 8.15212 14.2135 10.1726 
73 1 12.1931 12.1931 8.15212 
74 1 14.2135 14.2135 8.15212 
75 1 14.2135 12.1931 10.1726 
76 1 12.1931 14.2135 10.1726 
77 1 16.234 12.1931 8.15212 
78 1 18.2544 14.2135 8.15212 
79 1 18.2544 12.1931 10.1726 
80 1 16.234 14.2135 10.1726 
81 1 20.2749 12.1931 8.15212 
82 1 22.2954 14.2135 8.15212 
83 1 22.2954 12.1931 10.1726 
84 1 20.2749 14.2135 10.1726 
85 1 24.3158 12.1931 8.15212 
86 1 26.3363 14.2135 8.15212 
87 1 26.3363 12.1931 10.1726 
88 1 24.3158 14.2135 10.1726 
89 1 28.3568 12.1931 8.15212 
90 1 30.3772 14.2135 8.15212 
91 1 30.3772 12.1931 10.1726 
92 1 28.3568 14.2135 10.1726 
93 1 32.3977 12.1931 8.15212 
94 1 34.4181 14.2135 8.15212 
95 1 34.4181 12.1931 10.1726 
96 1 32.3977 14.2135 10.1726 
97 1 36.4386 12.1931 8.15212 
98 1 38.4591 14.2135 8.15212 
99 1 38.4591 12.1931 10.1726 
100 1 36.4386 14.2135 10.1726 
101 1 40.4795 12.1931 8.15212 
102 1 42.5 14.2135 8.15212 
103 1 42.5 12.1931 10.1726 
104 1 40.4795 14.2135 10.1726 
105 1 44.5205 12.1931 8.15212 
106 1 46.5409 14.2135 8.15212 
107 1 46.5409 12.1931 10.1726 
108 1 44.5205 14.2135 10.1726 
109 1 48.5614 12.1931 8.15212 
110 1 50.5819 14.2135 8.15212 
111 1 50.5819 12.1931 10.1726 
112 1 48.5614 14.2135 10.1726 
113 1 52.6023 12.1931 8.15212 
114 1 54.6228 14.2135 8.15212 
115 1 54.6228 12.1931 10.1726 
116 1 52.6023 14.2135 10.1726 
117 1 56.6432 12.1931 8.15212 
118 1 58.6637 14.2135 8.15212 
119 1 58.6637 12.1931 10.1726 
120 1 56.6432 14.2135 10.1726 
121 1 60.6842 12.1931 8.15212 
122 1 62.7046 14.2135 8.15212 
123 1 62.7046 12.1931 10.1726 
124 1 60.6842 14.2135 10.1726 
125 1 64.7251 12.1931 8.15212 
126 1 66.7456 14.2135 8.15212 
127 1 66.7456 12.1931 10.1726 
128 1 64.7251 14.2135 10.1726 
129 1 68.766 12.1931 8.15212 
130 1 70.7865 14.2135 8.15212 
131 1 70.7865 12.1931 10.1726 
132 1 68.766 14.2135 10.1726 
133 1 72.8069 12.1931 8.15212 
134 1 74.8274 14.2135 8.15212 
135 1 74.8274 12.1931 10.1726 
136 1 72.8069 14.2135 10.1726 
137 1 8.15212 16.234 8.15212 
138 1 10.1726 18.2544 8.15212 
139 1 10.1726 16.234 10.1726 
140 1 8.15212 18.2544 10.1726 
141 1 12.1931 16.234 8.15212 
142 1 14.2135 18.2544 8.15212 
143 1 14.2135 16.234 10.1726 
144 1 12.1931 18.2544 10.1726 
145 1 16.234 16.234 8.15212 
146 1 18.2544 18.2544 8.15212 
147 1 18.2544 16.234 10.1726 
148 1 16.234 18.2544 10.1726 
149 1 20.2749 16.234 8.15212 
150 1 22.2954 18.2544 8.15212 
151 1 22.2954 16.234 10.1726 
152 1 20.2749 18.2544 10.1726 
153 1 24.3158 16.234 8.15212 
154 1 26.3363 18.2544 8.15212 
155 1 26.3363 16.234 10.1726 
156 1 24.3158 18.2544 10.1726 
157 1 28.3568 16.234 8.15212 
158 1 30.3772 18.2544 8.15212 
159 1 30.3772 16.234 10.1726 
160 1 28.3568 18.2544 10.1726 
161 1 32.3977 16.234 8.15212 
162 1 34.4181 18.2544 8.15212 
163 1 34.4181 16.234 10.1726 
164 1 32.3977 18.2544 10.1726 
165 1 36.4386 16.234 8.15212 
166 1 38.4591 18.2544 8.15212 
167 1 38.4591 16.234 10.1726 
168 1 36.4386 18.2544 10.1726 
169 1 40.4795 16.234 8.15212 
170 1 42.5 18.2544 8.15212 
171 1 42.5 16.234 10.1726 
172 1 40.4795 18.2544 10.1726 
173 1 44.5205 16.234 8.15212 
174 1 46.5409 18.2544 8.15212 
175 1 46.5409 16.234 10.1726 
176 1 44.5205 18.2544 10.1726 
177 1 48.5614 16.234 8.15212 
178 1 50.5819 18.2544 8.15212 
179 1 50.5819 16.234 10.1726 
180 1 48.5614 18.2544 10.1726 
181 1 52.6023 16.234 8.15212 
182 1 54.6228 18.2544 8.15212 
183 1 54.6228 16.234 10.1726 
184 1 52.6023 18.2544 10.1726 
185 1 56.6432 16.234 8.15212 
186 1 58.6637 18.2544 8.15212 
187 1 58.6637 16.234 10.1726 
188 1 56.6432 18.2544 10.1726 
189 1 60.6842 16.234 8.15212 
190 1 62.7046 18.2544 8.15212 
191 1 62.7046 16.234 10.1726 
192 1 60.6842 18.2544 10.1726 
193 1 64.7251 16.234 8.15212 
194 1 66.7456 18.2544 8.15212 
195 1 66.7456 16.234 10.1726 
196 1 64.7251 18.2544 10.1726 
197 1 68.766 16.234 8.15212 
198 1 70.7865 18.2544 8.15212 
199 1 70.7865 16.234 10.1726 
200 1 68.766 18.2544 10.1726 
201 1 72.8069 16.234 8.15212 
202 1 74.8274 18.2544 8.15212 
203 1 74.8274 16.234 10.1726 
204 1 72.8069 18.2544 10.1726 
205 1 8.15212 20.2749 8.15212 
206 1 10.1726 22.2954 8.15212 
207 1 10.1726 20.2749 10.1726 
208 1 8.15212 22.2954 10.1726 
209 1 12.1931 20.2749 8.15212 
210 1 14.2135 22.2954 8.15212 
211 1 14.2135 20.2749 10.1726 
212 1 12.1931 22.2954 10.1726 
213 1 16.234 20.2749 8.15212 
214 1 18.2544 22.2954 8.15212 
215 1 18.2544 20.2749 10.1726 
216 1 16.234 22.2954 10.1726 
217 1 20.2749 20.2749 8.15212 
218 1 22.2954 22.2954 8.15212 
219 1 22.2954 20.2749 10.1726 
220 1 20.2749 22.2954 10.1726 
221 1 24.3158 20.2749 8.15212 
222 1 26.3363 22.2954 8.15212 
223 1 26.3363 20.2749 10.1726 
224 1 24.3158 22.2954 10.1726 
225 1 28.3568 20.2749 8.15212 
226 1 30.3772 22.2954 8.15212 
227 1 30.3772 20.2749 10.1726 
228 1 28.3568 22.2954 10.1726 
229 1 32.3977 20.2749 8.15212 
230 1 34.4181 22.2954 8.15212 
231 1 34.4181 20.2749 10.1726 
232 1 32.3977 22.2954 10.1726 
233 1 36.4386 20.2749 8.15212 
234 1 38.4591 22.2954 8.15212 
235 1 38.4591 20.2749 10.1726 
236 1 36.4386 22.2954 10.1726 
237 1 40.4795 20.2749 8.15212 
238 1 42.5 22.2954 8.15212 
239 1 42.5 20.2749 10.1726 
240 1 40.4795 22.2954 10.1726 
241 1 44.5205 20.2749 8.15212 
242 1 46.5409 22.2954 8.15212 
243 1 46.5409 20.2749 10.1726 
244 1 44.5205 22.2954 10.1726 
245 1 48.5614 20.2749 8.15212 
246 1 50.5819 22.2954 8.15212 
247 1 50.5819 20.2749 10.1726 
248 1 48.5614 22.2954 10.1726 
249 1 52.6023 20.2749 8.15212 
250 1 54.6228 22.2954 8.15212 
251 1 54.6228 20.2749 10.1726 
252 1 52.6023 22.2954 10.1726 
253 1 56.6432 20.2749 8.15212 
254 1 58.6637 22.2954 8.15212 
255 1 58.6637 20.2749 10.1726 
256 1 56.6432 22.2954 10.1726 
257 1 60.6842 20.2749 8.15212 
258 1 62.7046 22.2954 8.15212 
259 1 62.7046 20.2749 10.1726 
260 1 60.6842 22.2954 10.1726 
261 1 64.7251 20.2749 8.15212 
262 1 66.7456 22.2954 8.15212 
263 1 66.7456 20.2749 10.1726 
264 1 64.7251 22.2954 10.1726 
265 1 68.766 20.2749 8.15212 
266 1 70.7865 22.2954 8.15212 
267 1 70.7865 20.2749 10.1726 
268 1 68.766 22.2954 10.1726 
269 1 72.8069 20.2749 8.15212 
270 1 74.8274 22.2954 8.15212 
271 1 74.8274 20.2749 10.1726 
272 1 72.8069 22.2954 10.1726 
273 1 8.15212 24.3158 8.15212 
274 1 10.1726 26.3363 8.15212 
275 1 10.1726 24.3158 10.1726 
276 1 8.15212 26.3363 10.1726 
277 1 12.1931 24.3158 8.15212 
278 1 14.2135 26.3363 8.15212 
279 1 14.2135 24.3158 10.1726 
280 1 12.1931 26.3363 10.1726 
281 1 16.234 24.3158 8.15212 
282 1 18.2544 26.3363 8.15212 
283 1 18.2544 24.3158 10.1726 
284 1 16.234 26.3363 10.1726 
285 1 20.2749 24.3158 8.15212 
286 1 22.2954 26.3363 8.15212 
287 1 22.2954 24.3158 10.1726 
288 1 20.2749 26.3363 10.1726 
289 1 24.3158 24.3158 8.15212 
290 1 26.3363 26.3363 8.15212 
291 1 26.3363 24.3158 10.1726 
292 1 24.3158 26.3363 10.1726 
293 1 28.3568 24.3158 8.15212 
294 1 30.3772 26.3363 8.15212 
295 1 30.3772 24.3158 10.1726 
296 1 28.3568 26.3363 10.1726 
297 1 32.3977 24.3158 8.15212 
298 1 34.4181 26.3363 8.15212 
299 1 34.4181 24.3158 10.1726 
300 1 32.3977 26.3363 10.1726 
301 1 36.4386 24.3158 8.15212 
302 1 38.4591 26.3363 8.15212 
303 1 38.4591 24.3158 10.1726 
304 1 36.4386 26.3363 10.1726 
305 1 40.4795 24.3158 8.15212 
306 1 42.5 26.3363 8.15212 
307 1 42.5 24.3158 10.1726 
308 1 40.4795 26.3363 10.1726 
309 1 44.5205 24.3158 8.15212 
310 1 46.5409 26.3363 8.15212 
311 1 46.5409 24.3158 10.1726 
312 1 44.5205 26.3363 10.1726 
313 1 48.5614 24.3158 8.15212 
314 1 50.5819 26.3363 8.15212 
315 1 50.5819 24.3158 10.1726 
316 1 48.5614 26.3363 10.1726 
317 1 52.6023 24.3158 8.15212 
318 1 54.6228 26.3363 8.15212 
319 1 54.6228 24.3158 10.1726 
320 1 52.6023 26.3363 10.1726 
321 1 56.6432 24.3158 8.15212 
322 1 58.6637 26.3363 8.15212 
323 1 58.6637 24.3158 10.1726 
324 1 56.6432 26.3363 10.1726 
325 1 60.6842 24.3158 8.15212 
326 1 62.7046 26.3363 8.15212 
327 1 62.7046 24.3158 10.1726 
328 1 60.6842 26.3363 10.1726 
329 1 64.7251 24.3158 8.15212 
330 1 66.7456 26.3363 8.15212 
331 1 66.7456 24.3158 10.1726 
332 1 64.7251 26.3363 10.1726 
333 1 68.766 24.3158 8.15212 
334 1 70.7865 26.3363 8.15212 
335 1 70.7865 24.3158 10.1726 
336 1 68.766 26.3363 10.1726 
337 1 72.8069 24.3158 8.15212 
338 1 74.8274 26.3363 8.15212 
339 1 74.8274 24.3158 10.1726 
340 1 72.8069 26.3363 10.1726 
341 1 8.15212 28.3568 8.15212 
342 1 10.1726 30.3772 8.15212 
343 1 10.1726 28.3568 10.1726 
344 1 8.15212 30.3772 10.1726 
345 1 12.1931 28.3568 8.15212 
346 1 14.2135 30.3772 8.15212 
347 1 14.2135 28.3568 10.1726 
348 1 12.1931 30.3772 10.1726 
349 1 16.234 28.3568 8.15212 
350 1 18.2544 30.3772 8.15212 
351 1 18.2544 28.3568 10.1726 
352 1 16.234 30.3772 10.1726 
353 1 20.2749 28.3568 8.15212 
354 1 22.2954 30.3772 8.15212 
355 1 22.2954 28.3568 10.1726 
356 1 20.2749 30.3772 10.1726 
357 1 24.3158 28.3568 8.15212 
358 1 26.3363 30.3772 8.15212 
359 1 26.3363 28.3568 10.1726 
360 1 24.3158 30.3772 10.1726 
361 1 28.3568 28.3568 8.15212 
362 1 30.3772 30.3772 8.15212 
363 1 30.3772 28.3568 10.1726 
364 1 28.3568 30.3772 10.1726 
365 1 32.3977 28.3568 8.15212 
366 1 34.4181 30.3772 8.15212 
367 1 34.4181 28.3568 10.1726 
368 1 32.3977 30.3772 10.1726 
369 1 36.4386 28.3568 8.15212 
370 1 38.4591 30.3772 8.15212 
371 1 38.4591 28.3568 10.1726 
372 1 36.4386 30.3772 10.1726 
373 1 40.4795 28.3568 8.15212 
374 1 42.5 30.3772 8.15212 
375 1 42.5 28.3568 10.1726 
376 1 40.4795 30.3772 10.1726 
377 1 44.5205 28.3568 8.15212 
378 1 46.5409 30.3772 8.15212 
379 1 46.5409 28.3568 10.1726 
380 1 44.5205 30.3772 10.1726 
381 1 48.5614 28.3568 8.15212 
382 1 50.5819 30.3772 8.15212 
383 1 50.5819 28.3568 10.1726 
384 1 48.5614 30.3772 10.1726 
385 1 52.6023 28.3568 8.15212 
386 1 54.6228 30.3772 8.15212 
387 1 54.6228 28.3568 10.1726 
388 1 52.6023 30.3772 10.1726 
389 1 56.6432 28.3568 8.15212 
390 1 58.6637 30.3772 8.15212 
391 1 58.6637 28.3568 10.1726 
392 1 56.6432 30.3772 10.1726 
393 1 60.6842 28.3568 8.15212 
394 1 62.7046 30.3772 8.15212 
395 1 62.7046 28.3568 10.1726 
396 1 60.6842 30.3772 10.1726 
397 1 64.7251 28.3568 8.15212 
398 1 66.7456 30.3772 8.15212 
399 1 66.7456 28.3568 10.1726 
400 1 64.7251 30.3772 10.1726 
401 1 68.766 28.3568 8.15212 
402 1 70.7865 30.3772 8.15212 
403 1 70.7865 28.3568 10.1726 
404 1 68.766 30.3772 10.1726 
405 1 72.8069 28.3568 8.15212 
406 1 74.8274 30.3772 8.15212 
407 1 74.8274 28.3568 10.1726 
408 1 72.8069 30.3772 10.1726 
409 1 8.15212 32.3977 8.15212 
410 1 10.1726 34.4181 8.15212 
411 1 10.1726 32.3977 10.1726 
412 1 8.15212 34.4181 10.1726 
413 1 12.1931 32.3977 8.15212 
414 1 14.2135 34.4181 8.15212 
415 1 14.2135 32.3977 10.1726 
416 1 12.1931 34.4181 10.1726 
417 1 16.234 32.3977 8.15212 
418 1 18.2544 34.4181 8.15212 
419 1 18.2544 32.3977 10.1726 
420 1 16.234 34.4181 10.1726 
421 1 20.2749 32.3977 8.15212 
422 1 22.2954 34.4181 8.15212 
423 1 22.2954 32.3977 10.1726 
424 1 20.2749 34.4181 10.1726 
425 1 24.3158 32.3977 8.15212 
426 1 26.3363 34.4181 8.15212 
427 1 26.3363 32.3977 10.1726 
428 1 24.3158 34.4181 10.1726 
429 1 28.3568 32.3977 8.15212 
430 1 30.3772 34.4181 8.15212 
431 1 30.3772 32.3977 10.1726 
432 1 28.3568 34.4181 10.1726 
433 1 32.3977 32.3977 8.15212 
434 1 34.4181 34.4181 8.15212 
435 1 34.4181 32.3977 10.1726 
436 1 32.3977 34.4181 10.1726 
437 1 36.4386 32.3977 8.15212 
438 1 38.4591 34.4181 8.15212 
439 1 38.4591 32.3977 10.1726 
440 1 36.4386 34.4181 10.1726 
441 1 40.4795 32.3977 8.15212 
442 1 42.5 34.4181 8.15212 
443 1 42.5 32.3977 10.1726 
444 1 40.4795 34.4181 10.1726 
445 1 44.5205 32.3977 8.15212 
446 1 46.5409 34.4181 8.15212 
447 1 46.5409 32.3977 10.1726 
448 1 44.5205 34.4181 10.1726 
449 1 48.5614 32.3977 8.15212 
450 1 50.5819 34.4181 8.15212 
451 1 50.5819 32.3977 10.1726 
452 1 48.5614 34.4181 10.1726 
453 1 52.6023 32.3977 8.15212 
454 1 54.6228 34.4181 8.15212 
455 1 54.6228 32.3977 10.1726 
456 1 52.6023 34.4181 10.1726 
457 1 56.6432 32.3977 8.15212 
458 1 58.6637 34.4181 8.15212 
459 1 58.6637 32.3977 10.1726 
460 1 56.6432 34.4181 10.1726 
461 1 60.6842 32.3977 8.15212 
462 1 62.7046 34.4181 8.15212 
463 1 62.7046 32.3977 10.1726 
464 1 60.6842 34.4181 10.1726 
465 1 64.7251 32.3977 8.15212 
466 1 66.7456 34.4181 8.15212 
467 1 66.7456 32.3977 10.1726 
468 1 64.7251 34.4181 10.1726 
469 1 68.766 32.3977 8.15212 
470 1 70.7865 34.4181 8.15212 
471 1 70.7865 32.3977 10.1726 
472 1 68.766 34.4181 10.1726 
473 1 72.8069 32.3977 8.15212 
474 1 74.8274 34.4181 8.15212 
475 1 74.8274 32.3977 10.1726 
476 1 72.8069 34.4181 10.1726 
477 1 8.15212 36.4386 8.15212 
478 1 10.1726 38.4591 8.15212 
479 1 10.1726 36.4386 10.1726 
480 1 8.15212 38.4591 10.1726 
481 1 12.1931 36.4386 8.15212 
482 1 14.2135 38.4591 8.15212 
483 1 14.2135 36.4386 10.1726 
484 1 12.1931 38.4591 10.1726 
485 1 16.234 36.4386 8.15212 
486 1 18.2544 38.4591 8.15212 
487 1 18.2544 36.4386 10.1726 
488 1 16.234 38.4591 10.1726 
489 1 20.2749 36.4386 8.15212 
490 1 22.2954 38.4591 8.15212 
491 1 22.2954 36.4386 10.1726 
492 1 20.2749 38.4591 10.1726 
493 1 24.3158 36.4386 8.15212 
494 1 26.3363 38.4591 8.15212 
495 1 26.3363 36.4386 10.1726 
496 1 24.3158 38.4591 10.1726 
497 1 28.3568 36.4386 8.15212 
498 1 30.3772 38.4591 8.15212 
499 1 30.3772 36.4386 10.1726 
500 1 28.3568 38.4591 10.1726 
501 1 32.3977 36.4386 8.15212 
502 1 34.4181 38.4591 8.15212 
503 1 34.4181 36.4386 10.1726 
504 1 32.3977 38.4591 10.1726 
505 1 36.4386 36.4386 8.15212 
506 1 38.4591 38.4591 8.15212 
507 1 38.4591 36.4386 10.1726 
508 1 36.4386 38.4591 10.1726 
509 1 40.4795 36.4386 8.15212 
510 1 42.5 38.4591 8.15212 
511 1 42.5 36.4386 10.1726 
512 1 40.4795 38.4591 10.1726 
513 1 44.5205 36.4386 8.15212 
514 1 46.5409 38.4591 8.15212 
515 1 46.5409 36.4386 10.1726 
516 1 44.5205 38.4591 10.1726 
517 1 48.5614 36.4386 8.15212 
518 1 50.5819 38.4591 8.15212 
519 1 50.5819 36.4386 10.1726 
520 1 48.5614 38.4591 10.1726 
521 1 52.6023 36.4386 8.15212 
522 1 54.6228 38.4591 8.15212 
523 1 54.6228 36.4386 10.1726 
524 1 52.6023 38.4591 10.1726 
525 1 56.6432 36.4386 8.15212 
526 1 58.6637 38.4591 8.15212 
527 1 58.6637 36.4386 10.1726 
528 1 56.6432 38.4591 10.1726 
529 1 60.6842 36.4386 8.15212 
530 1 62.7046 38.4591 8.15212 
531 1 62.7046 36.4386 10.1726 
532 1 60.6842 38.4591 10.1726 
533 1 64.7251 36.4386 8.15212 
534 1 66.7456 38.4591 8.15212 
535 1 66.7456 36.4386 10.1726 
536 1 64.7251 38.4591 10.1726 
537 1 68.766 36.4386 8.15212 
538 1 70.7865 38.4591 8.15212 
539 1 70.7865 36.4386 10.1726 
540 1 68.766 38.4591 10.1726 
541 1 72.8069 36.4386 8.15212 
542 1 74.8274 38.4591 8.15212 
543 1 74.8274 36.4386 10.1726 
544 1 72.8069 38.4591 10.1726 
545 1 8.15212 40.4795 8.15212 
546 1 10.1726 42.5 8.15212 
547 1 10.1726 40.4795 10.1726 
548 1 8.15212 42.5 10.1726 
549 1 12.1931 40.4795 8.15212 
550 1 14.2135 42.5 8.15212 
551 1 14.2135 40.4795 10.1726 
552 1 12.1931 42.5 10.1726 
553 1 16.234 40.4795 8.15212 
554 1 18.2544 42.5 8.15212 
555 1 18.2544 40.4795 10.1726 
556 1 16.234 42.5 10.1726 
557 1 20.2749 40.4795 8.15212 
558 1 22.2954 42.5 8.15212 
559 1 22.2954 40.4795 10.1726 
560 1 20.2749 42.5 10.1726 
561 1 24.3158 40.4795 8.15212 
562 1 26.3363 42.5 8.15212 
563 1 26.3363 40.4795 10.1726 
564 1 24.3158 42.5 10.1726 
565 1 28.3568 40.4795 8.15212 
566 1 30.3772 42.5 8.15212 
567 1 30.3772 40.4795 10.1726 
568 1 28.3568 42.5 10.1726 
569 1 32.3977 40.4795 8.15212 
570 1 34.4181 42.5 8.15212 
571 1 34.4181 40.4795 10.1726 
572 1 32.3977 42.5 10.1726 
573 1 36.4386 40.4795 8.15212 
574 1 38.4591 42.5 8.15212 
575 1 38.4591 40.4795 10.1726 
576 1 36.4386 42.5 10.1726 
577 1 40.4795 40.4795 8.15212 
578 1 42.5 42.5 8.15212 
579 1 42.5 40.4795 10.1726 
580 1 40.4795 42.5 10.1726 
581 1 44.5205 40.4795 8.15212 
582 1 46.5409 42.5 8.15212 
583 1 46.5409 40.4795 10.1726 
584 1 44.5205 42.5 10.1726 
585 1 48.5614 40.4795 8.15212 
586 1 50.5819 42.5 8.15212 
587 1 50.5819 40.4795 10.1726 
588 1 48.5614 42.5 10.1726 
589 1 52.6023 40.4795 8.15212 
590 1 54.6228 42.5 8.15212 
591 1 54.6228 40.4795 10.1726 
592 1 52.6023 42.5 10.1726 
593 1 56.6432 40.4795 8.15212 
594 1 58.6637 42.5 8.15212 
595 1 58.6637 40.4795 10.1726 
596 1 56.6432 42.5 10.1726 
597 1 60.6842 40.4795 8.15212 
598 1 62.7046 42.5 8.15212 
599 1 62.7046 40.4795 10.1726 
600 1 60.6842 42.5 10.1726 
601 1 64.7251 40.4795 8.15212 
602 1 66.7456 42.5 8.15212 
603 1 66.7456 40.4795 10.1726 
604 1 64.7251 42.5 10.1726 
605 1 68.766 40.4795 8.15212 
606 1 70.7865 42.5 8.15212 
607 1 70.7865 40.4795 10.1726 
608 1 68.766 42.5 10.1726 
609 1 72.8069 40.4795 8.15212 
610 1 74.8274 42.5 8.15212 
611 1 74.8274 40.4795 10.1726 
612 1 72.8069 42.5 10.1726 
613 1 8.15212 44.5205 8.15212 
614 1 10.1726 46.5409 8.15212 
615 1 10.1726 44.5205 10.1726 
616 1 8.15212 46.5409 10.1726 
617 1 12.1931 44.5205 8.15212 
618 1 14.2135 46.5409 8.15212 
619 1 14.2135 44.5205 10.1726 
620 1 12.1931 46.5409 10.1726 
621 1 16.234 44.5205 8.15212 
622 1 18.2544 46.5409 8.15212 
623 1 18.2544 44.5205 10.1726 
624 1 16.234 46.5409 10.1726 
625 1 20.2749 44.5205 8.15212 
626 1 22.2954 46.5409 8.15212 
627 1 22.2954 44.5205 10.1726 
628 1 20.2749 46.5409 10.1726 
629 1 24.3158 44.5205 8.15212 
630 1 26.3363 46.5409 8.15212 
631 1 26.3363 44.5205 10.1726 
632 1 24.3158 46.5409 10.1726 
633 1 28.3568 44.5205 8.15212 
634 1 30.3772 46.5409 8.15212 
635 1 30.3772 44.5205 10.1726 
636 1 28.3568 46.5409 10.1726 
637 1 32.3977 44.5205 8.15212 
638 1 34.4181 46.5409 8.15212 
639 1 34.4181 44.5205 10.1726 
640 1 32.3977 46.5409 10.1726 
641 1 36.4386 44.5205 8.15212 
642 1 38.4591 46.5409 8.15212 
643 1 38.4591 44.5205 10.1726 
644 1 36.4386 46.5409 10.1726 
645 1 40.4795 44.5205 8.15212 
646 1 42.5 46.5409 8.15212 
647 1 42.5 44.5205 10.1726 
648 1 40.4795 46.5409 10.1726 
649 1 44.5205 44.5205 8.15212 
650 1 46.5409 46.5409 8.15212 
651 1 46.5409 44.5205 10.1726 
652 1 44.5205 46.5409 10.1726 
653 1 48.5614 44.5205 8.15212 
654 1 50.5819 46.5409 8.15212 
655 1 50.5819 44.5205 10.1726 
656 1 48.5614 46.5409 10.1726 
657 1 52.6023 44.5205 8.15212 
658 1 54.6228 46.5409 8.15212 
659 1 54.6228 44.5205 10.1726 
660 1 52.6023 46.5409 10.1726 
661 1 56.6432 44.5205 8.15212 
662 1 58.6637 46.5409 8.15212 
663 1 58.6637 44.5205 10.1726 
664 1 56.6432 46.5409 10.1726 
665 1 60.6842 44.5205 8.15212 
666 1 62.7046 46.5409 8.15212 
667 1 62.7046 44.5205 10.1726 
668 1 60.6842 46.5409 10.1726 
669 1 64.7251 44.5205 8.15212 
670 1 66.7456 46.5409 8.15212 
671 1 66.7456 44.5205 10.1726 
672 1 64.7251 46.5409 10.1726 
673 1 68.766 44.5205 8.15212 
674 1 70.7865 46.5409 8.15212 
675 1 70.7865 44.5205 10.1726 
676 1 68.766 46.5409 10.1726 
677 1 72.8069 44.5205 8.15212 
678 1 74.8274 46.5409 8.15212 
679 1 74.8274 44.5205 10.1726 
680 1 72.8069 46.5409 10.1726 
681 1 8.15212 48.5614 8.15212 
682 1 10.1726 50.5819 8.15212 
683 1 10.1726 48.5614 10.1726 
684 1 8.15212 50.5819 10.1726 
685 1 12.1931 48.5614 8.15212 
686 1 14.2135 50.5819 8.15212 
687 1 14.2135 48.5614 10.1726 
688 1 12.1931 50.5819 10.1726 
689 1 16.234 48.5614 8.15212 
690 1 18.2544 50.5819 8.15212 
691 1 18.2544 48.5614 10.1726 
692 1 16.234 50.5819 10.1726 
693 1 20.2749 48.5614 8.15212 
694 1 22.2954 50.5819 8.15212 
695 1 22.2954 48.5614 10.1726 
696 1 20.2749 50.5819 10.1726 
697 1 24.3158 48.5614 8.15212 
698 1 26.3363 50.5819 8.15212 
699 1 26.3363 48.5614 10.1726 
700 1 24.3158 50.5819 10.1726 
701 1 28.3568 48.5614 8.15212 
702 1 30.3772 50.5819 8.15212 
703 1 30.3772 48.5614 10.1726 
704 1 28.3568 50.5819 10.1726 
705 1 32.3977 48.5614 8.15212 
706 1 34.4181 50.5819 8.15212 
707 1 34.4181 48.5614 10.1726 
708 1 32.3977 50.5819 10.1726 
709 1 36.4386 48.5614 8.15212 
710 1 38.4591 50.5819 8.15212 
711 1 38.4591 48.5614 10.1726 
712 1 36.4386 50.5819 10.1726 
713 1 40.4795 48.5614 8.15212 
714 1 42.5 50.5819 8.15212 
715 1 42.5 48.5614 10.1726 
716 1 40.4795 50.5819 10.1726 
717 1 44.5205 48.5614 8.15212 
718 1 46.5409 50.5819 8.15212 
719 1 46.5409 48.5614 10.1726 
720 1 44.5205 50.5819 10.1726 
721 1 48.5614 48.5614 8.15212 
722 1 50.5819 50.5819 8.15212 
723 1 50.5819 48.5614 10.1726 
724 1 48.5614 50.5819 10.1726 
725 1 52.6023 48.5614 8.15212 
726 1 54.6228 50.5819 8.15212 
727 1 54.6228 48.5614 10.1726 
728 1 52.6023 50.5819 10.1726 
729 1 56.6432 48.5614 8.15212 
730 1 58.6637 50.5819 8.15212 
731 1 58.6637 48.5614 10.1726 
732 1 56.6432 50.5819 10.1726 
733 1 60.6842 48.5614 8.15212 
734 1 62.7046 50.5819 8.15212 
735 1 62.7046 48.5614 10.1726 
736 1 60.6842 50.5819 10.1726 
737 1 64.7251 48.5614 8.15212 
738 1 66.7456 50.5819 8.15212 
739 1 66.7456 48.5614 10.1726 
740 1 64.7251 50.5819 10.1726 
741 1 68.766 48.5614 8.15212 
742 1 70.7865 50.5819 8.15212 
743 1 70.7865 48.5614 10.1726 
744 1 68.766 50.5819 10.1726 
745 1 72.8069 48.5614 8.15212 
746 1 74.8274 50.5819 8.15212 
747 1 74.8274 48.5614 10.1726 
748 1 72.8069 50.5819 10.1726 
749 1 8.15212 52.6023 8.15212 
750 1 10.1726 54.6228 8.15212 
751 1 10.1726 52.6023 10.1726 
752 1 8.15212 54.6228 10.1726 
753 1 12.1931 52.6023 8.15212 
754 1 14.2135 54.6228 8.15212 
755 1 14.2135 52.6023 10.1726 
756 1 12.1931 54.6228 10.1726 
757 1 16.234 52.6023 8.15212 
758 1 18.2544 54.6228 8.15212 
759 1 18.2544 52.6023 10.1726 
760 1 16.234 54.6228 10.1726 
761 1 20.2749 52.6023 8.15212 
762 1 22.2954 54.6228 8.15212 
763 1 22.2954 52.6023 10.1726 
764 1 20.2749 54.6228 10.1726 
765 1 24.3158 52.6023 8.15212 
766 1 26.3363 54.6228 8.15212 
767 1 26.3363 52.6023 10.1726 
768 1 24.3158 54.6228 10.1726 
769 1 28.3568 52.6023 8.15212 
770 1 30.3772 54.6228 8.15212 
771 1 30.3772 52.6023 10.1726 
772 1 28.3568 54.6228 10.1726 
773 1 32.3977 52.6023 8.15212 
774 1 34.4181 54.6228 8.15212 
775 1 34.4181 52.6023 10.1726 
776 1 32.3977 54.6228 10.1726 
777 1 36.4386 52.6023 8.15212 
778 1 38.4591 54.6228 8.15212 
779 1 38.4591 52.6023 10.1726 
780 1 36.4386 54.6228 10.1726 
781 1 40.4795 52.6023 8.15212 
782 1 42.5 54.6228 8.15212 
783 1 42.5 52.6023 10.1726 
784 1 40.4795 54.6228 10.1726 
785 1 44.5205 52.6023 8.15212 
786 1 46.5409 54.6228 8.15212 
787 1 46.5409 52.6023 10.1726 
788 1 44.5205 54.6228 10.1726 
789 1 48.5614 52.6023 8.15212 
790 1 50.5819 54.6228 8.15212 
791 1 50.5819 52.6023 10.1726 
792 1 48.5614 54.6228 10.1726 
793 1 52.6023 52.6023 8.15212 
794 1 54.6228 54.6228 8.15212 
795 1 54.6228 52.6023 10.1726 
796 1 52.6023 54.6228 10.1726 
797 1 56.6432 52.6023 8.15212 
798 1 58.6637 54.6228 8.15212 
799 1 58.6637 52.6023 10.1726 
800 1 56.6432 54.6228 10.1726 
801 1 60.6842 52.6023 8.15212 
802 1 62.7046 54.6228 8.15212 
803 1 62.7046 52.6023 10.1726 
804 1 60.6842 54.6228 10.1726 
805 1 64.7251 52.6023 8.15212 
806 1 66.7456 54.6228 8.15212 
807 1 66.7456 52.6023 10.1726 
808 1 64.7251 54.6228 10.1726 
809 1 68.766 52.6023 8.15212 
810 1 70.7865 54.6228 8.15212 
811 1 70.7865 52.6023 10.1726 
812 1 68.766 54.6228 10.1726 
813 1 72.8069 52.6023 8.15212 
814 1 74.8274 54.6228 8.15212 
815 1 74.8274 52.6023 10.1726 
816 1 72.8069 54.6228 10.1726 
817 1 8.15212 56.6432 8.15212 
818 1 10.1726 58.6637 8.15212 
819 1 10.1726 56.6432 10.1726 
820 1 8.15212 58.6637 10.1726 
821 1 12.1931 56.6432 8.15212 
822 1 14.2135 58.6637 8.15212 
823 1 14.2135 56.6432 10.1726 
824 1 12.1931 58.6637 10.1726 
825 1 16.234 56.6432 8.15212 
826 1 18.2544 58.6637 8.15212 
827 1 18.2544 56.6432 10.1726 
828 1 16.234 58.6637 10.1726 
829 1 20.2749 56.6432 8.15212 
830 1 22.2954 58.6637 8.15212 
831 1 22.2954 56.6432 10.1726 
832 1 20.2749 58.6637 10.1726 
833 1 24.3158 56.6432 8.15212 
834 1 26.3363 58.6637 8.15212 
835 1 26.3363 56.6432 10.1726 
836 1 24.3158 58.6637 10.1726 
837 1 28.3568 56.6432 8.15212 
838 1 30.3772 58.6637 8.15212 
839 1 30.3772 56.6432 10.1726 
840 1 28.3568 58.6637 10.1726 
841 1 32.3977 56.6432 8.15212 
842 1 34.4181 58.6637 8.15212 
843 1 34.4181 56.6432 10.1726 
844 1 32.3977 58.6637 10.1726 
845 1 36.4386 56.6432 8.15212 
846 1 38.4591 58.6637 8.15212 
847 1 38.4591 56.6432 10.1726 
848 1 36.4386 58.6637 10.1726 
849 1 40.4795 56.6432 8.15212 
850 1 42.5 58.6637 8.15212 
851 1 42.5 56.6432 10.1726 
852 1 40.4795 58.6637 10.1726 
853 1 44.5205 56.6432 8.15212 
854 1 46.5409 58.6637 8.15212 
855 1 46.5409 56.6432 10.1726 
856 1 44.5205 58.6637 10.1726 
857 1 48.5614 56.6432 8.15212 
858 1 50.5819 58.6637 8.15212 
859 1 50.5819 56.6432 10.1726 
860 1 48.5614 58.6637 10.1726 
861 1 52.6023 56.6432 8.15212 
862 1 54.6228 58.6637 8.15212 
863 1 54.6228 56.6432 10.1726 
864 1 52.6023 58.6637 10.1726 
865 1 56.6432 56.6432 8.15212 
866 1 58.6637 58.6637 8.15212 
867 1 58.6637 56.6432 10.1726 
868 1 56.6432 58.6637 10.1726 
869 1 60.6842 56.6432 8.15212 
870 1 62.7046 58.6637 8.15212 
871 1 62.7046 56.6432 10.1726 
872 1 60.6842 58.6637 10.1726 
873 1 64.7251 56.6432 8.15212 
874 1 66.7456 58.6637 8.15212 
875 1 66.7456 56.6432 10.1726 
876 1 64.7251 58.6637 10.1726 
877 1 68.766 56.6432 8.15212 
878 1 70.7865 58.6637 8.15212 
879 1 70.7865 56.6432 10.1726 
880 1 68.766 58.6637 10.1726 
881 1 72.8069 56.6432 8.15212 
882 1 74.8274 58.6637 8.15212 
883 1 74.8274 56.6432 10.1726 
884 1 72.8069 58.6637 10.1726 
885 1 8.15212 60.6842 8.15212 
886 1 10.1726 62.7046 8.15212 
887 1 10.1726 60.6842 10.1726 
888 1 8.15212 62.7046 10.1726 
889 1 12.1931 60.6842 8.15212 
890 1 14.2135 62.7046 8.15212 
891 1 14.2135 60.6842 10.1726 
892 1 12.1931 62.7046 10.1726 
893 1 16.234 60.6842 8.15212 
894 1 18.2544 62.7046 8.15212 
895 1 18.2544 60.6842 10.1726 
896 1 16.234 62.7046 10.1726 
897 1 20.2749 60.6842 8.15212 
898 1 22.2954 62.7046 8.15212 
899 1 22.2954 60.6842 10.1726 
900 1 20.2749 62.7046 10.1726 
901 1 24.3158 60.6842 8.15212 
902 1 26.3363 62.7046 8.15212 
903 1 26.3363 60.6842 10.1726 
904 1 24.3158 62.7046 10.1726 
905 1 28.3568 60.6842 8.15212 
906 1 30.3772 62.7046 8.15212 
907 1 30.3772 60.6842 10.1726 
908 1 28.3568 62.7046 10.1726 
909 1 32.3977 60.6842 8.15212 
910 1 34.4181 62.7046 8.15212 
911 1 34.4181 60.6842 10.1726 
912 1 32.3977 62.7046 10.1726 
913 1 36.4386 60.6842 8.15212 
914 1 38.4591 62.7046 8.15212 
915 1 38.4591 60.6842 10.1726 
916 1 36.4386 62.7046 10.1726 
917 1 40.4795 60.6842 8.15212 
918 1 42.5 62.7046 8.15212 
919 1 42.5 60.6842 10.1726 
920 1 40.4795 62.7046 10.1726 
921 1 44.5205 60.6842 8.15212 
922 1 46.5409 62.7046 8.15212 
923 1 46.5409 60.6842 10.1726 
924 1 44.5205 62.7046 10.1726 
925 1 48.5614 60.6842 8.15212 
926 1 50.5819 62.7046 8.15212 
927 1 50.5819 60.6842 10.1726 
928 1 48.5614 62.7046 10.1726 
929 1 52.6023 60.6842 8.15212 
930 1 54.6228 62.7046 8.15212 
931 1 54.6228 60.6842 10.1726 
932 1 52.6023 62.7046 10.1726 
933 1 56.6432 60.6842 8.15212 
934 1 58.6637 62.7046 8.15212 
935 1 58.6637 60.6842 10.1726 
936 1 56.6432 62.7046 10.1726 
937 1 60.6842 60.6842 8.15212 
938 1 62.7046 62.7046 8.15212 
939 1 62.7046 60.6842 10.1726 
940 1 60.6842 62.7046 10.1726 
941 1 64.7251 60.6842 8.15212 
942 1 66.7456 62.7046 8.15212 
943 1 66.7456 60.6842 10.1726 
944 1 64.7251 62.7046 10.1726 
945 1 68.766 60.6842 8.15212 
946 1 70.7865 62.7046 8.15212 
947 1 70.7865 60.6842 10.1726 
948 1 68.766 62.7046 10.1726 
949 1 72.8069 60.6842 8.15212 
950 1 74.8274 62.7046 8.15212 
951 1 74.8274 60.6842 10.1726 
952 1 72.8069 62.7046 10.1726 
953 1 8.15212 64.7251 8.15212 
954 1 10.1726 66.7456 8.15212 
955 1 10.1726 64.7251 10.1726 
956 1 8.15212 66.7456 10.1726 
957 1 12.1931 64.7251 8.15212 
958 1 14.2135 66.7456 8.15212 
959 1 14.2135 64.7251 10.1726 
960 1 12.1931 66.7456 10.1726 
961 1 16.234 64.7251 8.15212 
962 1 18.2544 66.7456 8.15212 
963 1 18.2544 64.7251 10.1726 
964 1 16.234 66.7456 10.1726 
965 1 20.2749 64.7251 8.15212 
966 1 22.2954 66.7456 8.15212 
967 1 22.2954 64.7251 10.1726 
968 1 20.2749 66.7456 10.1726 
969 1 24.3158 64.7251 8.15212 
970 1 26.3363 66.7456 8.15212 
971 1 26.3363 64.7251 10.1726 
972 1 24.3158 66.7456 10.1726 