ITEM: TIMESTEP
18
ITEM: NUMBER OF ATOMS
19652
ITEM: BOX BOUNDS pp pp pp
-3.4772500807466149e+00 8.8477250080746714e+01
-3.4772500807466149e+00 8.8477250080746714e+01
-3.4772500807466149e+00 8.8477250080746714e+01
ITEM: ATOMS id type xu yu zu 
1 2 -3.47725 -3.47725 -3.47725 
2 2 -0.772706 -0.772706 -3.47725 
3 2 -0.772706 -3.47725 -0.772706 
4 2 -3.47725 -0.772706 -0.772706 
5 2 1.93184 -3.47725 -3.47725 
6 2 4.63638 -0.772706 -3.47725 
7 2 4.63638 -3.47725 -0.772706 
8 2 1.93184 -0.772706 -0.772706 
9 2 7.34093 -3.47725 -3.47725 
10 2 10.0455 -0.772706 -3.47725 
11 2 10.0455 -3.47725 -0.772706 
12 2 7.34093 -0.772706 -0.772706 
13 2 12.75 -3.47725 -3.47725 
14 2 15.4546 -0.772706 -3.47725 
15 2 15.4546 -3.47725 -0.772706 
16 2 12.75 -0.772706 -0.772706 
17 2 18.1591 -3.47725 -3.47725 
18 2 20.8636 -0.772706 -3.47725 
19 2 20.8636 -3.47725 -0.772706 
20 2 18.1591 -0.772706 -0.772706 
21 2 23.5682 -3.47725 -3.47725 
22 2 26.2727 -0.772706 -3.47725 
23 2 26.2727 -3.47725 -0.772706 
24 2 23.5682 -0.772706 -0.772706 
25 2 28.9773 -3.47725 -3.47725 
26 2 31.6818 -0.772706 -3.47725 
27 2 31.6818 -3.47725 -0.772706 
28 2 28.9773 -0.772706 -0.772706 
29 2 34.3864 -3.47725 -3.47725 
30 2 37.0909 -0.772706 -3.47725 
31 2 37.0909 -3.47725 -0.772706 
32 2 34.3864 -0.772706 -0.772706 
33 2 39.7955 -3.47725 -3.47725 
34 2 42.5 -0.772706 -3.47725 
35 2 42.5 -3.47725 -0.772706 
36 2 39.7955 -0.772706 -0.772706 
37 2 45.2045 -3.47725 -3.47725 
38 2 47.9091 -0.772706 -3.47725 
39 2 47.9091 -3.47725 -0.772706 
40 2 45.2045 -0.772706 -0.772706 
41 2 50.6136 -3.47725 -3.47725 
42 2 53.3182 -0.772706 -3.47725 
43 2 53.3182 -3.47725 -0.772706 
44 2 50.6136 -0.772706 -0.772706 
45 2 56.0227 -3.47725 -3.47725 
46 2 58.7273 -0.772706 -3.47725 
47 2 58.7273 -3.47725 -0.772706 
48 2 56.0227 -0.772706 -0.772706 
49 2 61.4318 -3.47725 -3.47725 
50 2 64.1364 -0.772706 -3.47725 
51 2 64.1364 -3.47725 -0.772706 
52 2 61.4318 -0.772706 -0.772706 
53 2 66.8409 -3.47725 -3.47725 
54 2 69.5454 -0.772706 -3.47725 
55 2 69.5454 -3.47725 -0.772706 
56 2 66.8409 -0.772706 -0.772706 
57 2 72.25 -3.47725 -3.47725 
58 2 74.9545 -0.772706 -3.47725 
59 2 74.9545 -3.47725 -0.772706 
60 2 72.25 -0.772706 -0.772706 
61 2 77.6591 -3.47725 -3.47725 
62 2 80.3636 -0.772706 -3.47725 
63 2 80.3636 -3.47725 -0.772706 
64 2 77.6591 -0.772706 -0.772706 
65 2 83.0682 -3.47725 -3.47725 
66 2 85.7727 -0.772706 -3.47725 
67 2 85.7727 -3.47725 -0.772706 
68 2 83.0682 -0.772706 -0.772706 
69 2 -3.47725 1.93184 -3.47725 
70 2 -0.772706 4.63638 -3.47725 
71 2 -0.772706 1.93184 -0.772706 
72 2 -3.47725 4.63638 -0.772706 
73 2 1.93184 1.93184 -3.47725 
74 2 4.63638 4.63638 -3.47725 
75 2 4.63638 1.93184 -0.772706 
76 2 1.93184 4.63638 -0.772706 
77 2 7.34093 1.93184 -3.47725 
78 2 10.0455 4.63638 -3.47725 
79 2 10.0455 1.93184 -0.772706 
80 2 7.34093 4.63638 -0.772706 
81 2 12.75 1.93184 -3.47725 
82 2 15.4546 4.63638 -3.47725 
83 2 15.4546 1.93184 -0.772706 
84 2 12.75 4.63638 -0.772706 
85 2 18.1591 1.93184 -3.47725 
86 2 20.8636 4.63638 -3.47725 
87 2 20.8636 1.93184 -0.772706 
88 2 18.1591 4.63638 -0.772706 
89 2 23.5682 1.93184 -3.47725 
90 2 26.2727 4.63638 -3.47725 
91 2 26.2727 1.93184 -0.772706 
92 2 23.5682 4.63638 -0.772706 
93 2 28.9773 1.93184 -3.47725 
94 2 31.6818 4.63638 -3.47725 
95 2 31.6818 1.93184 -0.772706 
96 2 28.9773 4.63638 -0.772706 
97 2 34.3864 1.93184 -3.47725 
98 2 37.0909 4.63638 -3.47725 
99 2 37.0909 1.93184 -0.772706 
100 2 34.3864 4.63638 -0.772706 
101 2 39.7955 1.93184 -3.47725 
102 2 42.5 4.63638 -3.47725 
103 2 42.5 1.93184 -0.772706 
104 2 39.7955 4.63638 -0.772706 
105 2 45.2045 1.93184 -3.47725 
106 2 47.9091 4.63638 -3.47725 
107 2 47.9091 1.93184 -0.772706 
108 2 45.2045 4.63638 -0.772706 
109 2 50.6136 1.93184 -3.47725 
110 2 53.3182 4.63638 -3.47725 
111 2 53.3182 1.93184 -0.772706 
112 2 50.6136 4.63638 -0.772706 
113 2 56.0227 1.93184 -3.47725 
114 2 58.7273 4.63638 -3.47725 
115 2 58.7273 1.93184 -0.772706 
116 2 56.0227 4.63638 -0.772706 
117 2 61.4318 1.93184 -3.47725 
118 2 64.1364 4.63638 -3.47725 
119 2 64.1364 1.93184 -0.772706 
120 2 61.4318 4.63638 -0.772706 
121 2 66.8409 1.93184 -3.47725 
122 2 69.5454 4.63638 -3.47725 
123 2 69.5454 1.93184 -0.772706 
124 2 66.8409 4.63638 -0.772706 
125 2 72.25 1.93184 -3.47725 
126 2 74.9545 4.63638 -3.47725 
127 2 74.9545 1.93184 -0.772706 
128 2 72.25 4.63638 -0.772706 
129 2 77.6591 1.93184 -3.47725 
130 2 80.3636 4.63638 -3.47725 
131 2 80.3636 1.93184 -0.772706 
132 2 77.6591 4.63638 -0.772706 
133 2 83.0682 1.93184 -3.47725 
134 2 85.7727 4.63638 -3.47725 
135 2 85.7727 1.93184 -0.772706 
136 2 83.0682 4.63638 -0.772706 
137 2 -3.47725 7.34093 -3.47725 
138 2 -0.772706 10.0455 -3.47725 
139 2 -0.772706 7.34093 -0.772706 
140 2 -3.47725 10.0455 -0.772706 
141 2 1.93184 7.34093 -3.47725 
142 2 4.63638 10.0455 -3.47725 
143 2 4.63638 7.34093 -0.772706 
144 2 1.93184 10.0455 -0.772706 
145 2 7.34093 7.34093 -3.47725 
146 2 10.0455 10.0455 -3.47725 
147 2 10.0455 7.34093 -0.772706 
148 2 7.34093 10.0455 -0.772706 
149 2 12.75 7.34093 -3.47725 
150 2 15.4546 10.0455 -3.47725 
151 2 15.4546 7.34093 -0.772706 
152 2 12.75 10.0455 -0.772706 
153 2 18.1591 7.34093 -3.47725 
154 2 20.8636 10.0455 -3.47725 
155 2 20.8636 7.34093 -0.772706 
156 2 18.1591 10.0455 -0.772706 
157 2 23.5682 7.34093 -3.47725 
158 2 26.2727 10.0455 -3.47725 
159 2 26.2727 7.34093 -0.772706 
160 2 23.5682 10.0455 -0.772706 
161 2 28.9773 7.34093 -3.47725 
162 2 31.6818 10.0455 -3.47725 
163 2 31.6818 7.34093 -0.772706 
164 2 28.9773 10.0455 -0.772706 
165 2 34.3864 7.34093 -3.47725 
166 2 37.0909 10.0455 -3.47725 
167 2 37.0909 7.34093 -0.772706 
168 2 34.3864 10.0455 -0.772706 
169 2 39.7955 7.34093 -3.47725 
170 2 42.5 10.0455 -3.47725 
171 2 42.5 7.34093 -0.772706 
172 2 39.7955 10.0455 -0.772706 
173 2 45.2045 7.34093 -3.47725 
174 2 47.9091 10.0455 -3.47725 
175 2 47.9091 7.34093 -0.772706 
176 2 45.2045 10.0455 -0.772706 
177 2 50.6136 7.34093 -3.47725 
178 2 53.3182 10.0455 -3.47725 
179 2 53.3182 7.34093 -0.772706 
180 2 50.6136 10.0455 -0.772706 
181 2 56.0227 7.34093 -3.47725 
182 2 58.7273 10.0455 -3.47725 
183 2 58.7273 7.34093 -0.772706 
184 2 56.0227 10.0455 -0.772706 
185 2 61.4318 7.34093 -3.47725 
186 2 64.1364 10.0455 -3.47725 
187 2 64.1364 7.34093 -0.772706 
188 2 61.4318 10.0455 -0.772706 
189 2 66.8409 7.34093 -3.47725 
190 2 69.5454 10.0455 -3.47725 
191 2 69.5454 7.34093 -0.772706 
192 2 66.8409 10.0455 -0.772706 
193 2 72.25 7.34093 -3.47725 
194 2 74.9545 10.0455 -3.47725 
195 2 74.9545 7.34093 -0.772706 
196 2 72.25 10.0455 -0.772706 
197 2 77.6591 7.34093 -3.47725 
198 2 80.3636 10.0455 -3.47725 
199 2 80.3636 7.34093 -0.772706 
200 2 77.6591 10.0455 -0.772706 
201 2 83.0682 7.34093 -3.47725 
202 2 85.7727 10.0455 -3.47725 
203 2 85.7727 7.34093 -0.772706 
204 2 83.0682 10.0455 -0.772706 
205 2 -3.47725 12.75 -3.47725 
206 2 -0.772706 15.4546 -3.47725 
207 2 -0.772706 12.75 -0.772706 
208 2 -3.47725 15.4546 -0.772706 
209 2 1.93184 12.75 -3.47725 
210 2 4.63638 15.4546 -3.47725 
211 2 4.63638 12.75 -0.772706 
212 2 1.93184 15.4546 -0.772706 
213 2 7.34093 12.75 -3.47725 
214 2 10.0455 15.4546 -3.47725 
215 2 10.0455 12.75 -0.772706 
216 2 7.34093 15.4546 -0.772706 
217 2 12.75 12.75 -3.47725 
218 2 15.4546 15.4546 -3.47725 
219 2 15.4546 12.75 -0.772706 
220 2 12.75 15.4546 -0.772706 
221 2 18.1591 12.75 -3.47725 
222 2 20.8636 15.4546 -3.47725 
223 2 20.8636 12.75 -0.772706 
224 2 18.1591 15.4546 -0.772706 
225 2 23.5682 12.75 -3.47725 
226 2 26.2727 15.4546 -3.47725 
227 2 26.2727 12.75 -0.772706 
228 2 23.5682 15.4546 -0.772706 
229 2 28.9773 12.75 -3.47725 
230 2 31.6818 15.4546 -3.47725 
231 2 31.6818 12.75 -0.772706 
232 2 28.9773 15.4546 -0.772706 
233 2 34.3864 12.75 -3.47725 
234 2 37.0909 15.4546 -3.47725 
235 2 37.0909 12.75 -0.772706 
236 2 34.3864 15.4546 -0.772706 
237 2 39.7955 12.75 -3.47725 
238 2 42.5 15.4546 -3.47725 
239 2 42.5 12.75 -0.772706 
240 2 39.7955 15.4546 -0.772706 
241 2 45.2045 12.75 -3.47725 
242 2 47.9091 15.4546 -3.47725 
243 2 47.9091 12.75 -0.772706 
244 2 45.2045 15.4546 -0.772706 
245 2 50.6136 12.75 -3.47725 
246 2 53.3182 15.4546 -3.47725 
247 2 53.3182 12.75 -0.772706 
248 2 50.6136 15.4546 -0.772706 
249 2 56.0227 12.75 -3.47725 
250 2 58.7273 15.4546 -3.47725 
251 2 58.7273 12.75 -0.772706 
252 2 56.0227 15.4546 -0.772706 
253 2 61.4318 12.75 -3.47725 
254 2 64.1364 15.4546 -3.47725 
255 2 64.1364 12.75 -0.772706 
256 2 61.4318 15.4546 -0.772706 
257 2 66.8409 12.75 -3.47725 
258 2 69.5454 15.4546 -3.47725 
259 2 69.5454 12.75 -0.772706 
260 2 66.8409 15.4546 -0.772706 
261 2 72.25 12.75 -3.47725 
262 2 74.9545 15.4546 -3.47725 
263 2 74.9545 12.75 -0.772706 
264 2 72.25 15.4546 -0.772706 
265 2 77.6591 12.75 -3.47725 
266 2 80.3636 15.4546 -3.47725 
267 2 80.3636 12.75 -0.772706 
268 2 77.6591 15.4546 -0.772706 
269 2 83.0682 12.75 -3.47725 
270 2 85.7727 15.4546 -3.47725 
271 2 85.7727 12.75 -0.772706 
272 2 83.0682 15.4546 -0.772706 
273 2 -3.47725 18.1591 -3.47725 
274 2 -0.772706 20.8636 -3.47725 
275 2 -0.772706 18.1591 -0.772706 
276 2 -3.47725 20.8636 -0.772706 
277 2 1.93184 18.1591 -3.47725 
278 2 4.63638 20.8636 -3.47725 
279 2 4.63638 18.1591 -0.772706 
280 2 1.93184 20.8636 -0.772706 
281 2 7.34093 18.1591 -3.47725 
282 2 10.0455 20.8636 -3.47725 
283 2 10.0455 18.1591 -0.772706 
284 2 7.34093 20.8636 -0.772706 
285 2 12.75 18.1591 -3.47725 
286 2 15.4546 20.8636 -3.47725 
287 2 15.4546 18.1591 -0.772706 
288 2 12.75 20.8636 -0.772706 
289 2 18.1591 18.1591 -3.47725 
290 2 20.8636 20.8636 -3.47725 
291 2 20.8636 18.1591 -0.772706 
292 2 18.1591 20.8636 -0.772706 
293 2 23.5682 18.1591 -3.47725 
294 2 26.2727 20.8636 -3.47725 
295 2 26.2727 18.1591 -0.772706 
296 2 23.5682 20.8636 -0.772706 
297 2 28.9773 18.1591 -3.47725 
298 2 31.6818 20.8636 -3.47725 
299 2 31.6818 18.1591 -0.772706 
300 2 28.9773 20.8636 -0.772706 
301 2 34.3864 18.1591 -3.47725 
302 2 37.0909 20.8636 -3.47725 
303 2 37.0909 18.1591 -0.772706 
304 2 34.3864 20.8636 -0.772706 
305 2 39.7955 18.1591 -3.47725 
306 2 42.5 20.8636 -3.47725 
307 2 42.5 18.1591 -0.772706 
308 2 39.7955 20.8636 -0.772706 
309 2 45.2045 18.1591 -3.47725 
310 2 47.9091 20.8636 -3.47725 
311 2 47.9091 18.1591 -0.772706 
312 2 45.2045 20.8636 -0.772706 
313 2 50.6136 18.1591 -3.47725 
314 2 53.3182 20.8636 -3.47725 
315 2 53.3182 18.1591 -0.772706 
316 2 50.6136 20.8636 -0.772706 
317 2 56.0227 18.1591 -3.47725 
318 2 58.7273 20.8636 -3.47725 
319 2 58.7273 18.1591 -0.772706 
320 2 56.0227 20.8636 -0.772706 
321 2 61.4318 18.1591 -3.47725 
322 2 64.1364 20.8636 -3.47725 
323 2 64.1364 18.1591 -0.772706 
324 2 61.4318 20.8636 -0.772706 
325 2 66.8409 18.1591 -3.47725 
326 2 69.5454 20.8636 -3.47725 
327 2 69.5454 18.1591 -0.772706 
328 2 66.8409 20.8636 -0.772706 
329 2 72.25 18.1591 -3.47725 
330 2 74.9545 20.8636 -3.47725 
331 2 74.9545 18.1591 -0.772706 
332 2 72.25 20.8636 -0.772706 
333 2 77.6591 18.1591 -3.47725 
334 2 80.3636 20.8636 -3.47725 
335 2 80.3636 18.1591 -0.772706 
336 2 77.6591 20.8636 -0.772706 
337 2 83.0682 18.1591 -3.47725 
338 2 85.7727 20.8636 -3.47725 
339 2 85.7727 18.1591 -0.772706 
340 2 83.0682 20.8636 -0.772706 
341 2 -3.47725 23.5682 -3.47725 
342 2 -0.772706 26.2727 -3.47725 
343 2 -0.772706 23.5682 -0.772706 
344 2 -3.47725 26.2727 -0.772706 
345 2 1.93184 23.5682 -3.47725 
346 2 4.63638 26.2727 -3.47725 
347 2 4.63638 23.5682 -0.772706 
348 2 1.93184 26.2727 -0.772706 
349 2 7.34093 23.5682 -3.47725 
350 2 10.0455 26.2727 -3.47725 
351 2 10.0455 23.5682 -0.772706 
352 2 7.34093 26.2727 -0.772706 
353 2 12.75 23.5682 -3.47725 
354 2 15.4546 26.2727 -3.47725 
355 2 15.4546 23.5682 -0.772706 
356 2 12.75 26.2727 -0.772706 
357 2 18.1591 23.5682 -3.47725 
358 2 20.8636 26.2727 -3.47725 
359 2 20.8636 23.5682 -0.772706 
360 2 18.1591 26.2727 -0.772706 
361 2 23.5682 23.5682 -3.47725 
362 2 26.2727 26.2727 -3.47725 
363 2 26.2727 23.5682 -0.772706 
364 2 23.5682 26.2727 -0.772706 
365 2 28.9773 23.5682 -3.47725 
366 2 31.6818 26.2727 -3.47725 
367 2 31.6818 23.5682 -0.772706 
368 2 28.9773 26.2727 -0.772706 
369 2 34.3864 23.5682 -3.47725 
370 2 37.0909 26.2727 -3.47725 
371 2 37.0909 23.5682 -0.772706 
372 2 34.3864 26.2727 -0.772706 
373 2 39.7955 23.5682 -3.47725 
374 2 42.5 26.2727 -3.47725 
375 2 42.5 23.5682 -0.772706 
376 2 39.7955 26.2727 -0.772706 
377 2 45.2045 23.5682 -3.47725 
378 2 47.9091 26.2727 -3.47725 
379 2 47.9091 23.5682 -0.772706 
380 2 45.2045 26.2727 -0.772706 
381 2 50.6136 23.5682 -3.47725 
382 2 53.3182 26.2727 -3.47725 
383 2 53.3182 23.5682 -0.772706 
384 2 50.6136 26.2727 -0.772706 
385 2 56.0227 23.5682 -3.47725 
386 2 58.7273 26.2727 -3.47725 
387 2 58.7273 23.5682 -0.772706 
388 2 56.0227 26.2727 -0.772706 
389 2 61.4318 23.5682 -3.47725 
390 2 64.1364 26.2727 -3.47725 
391 2 64.1364 23.5682 -0.772706 
392 2 61.4318 26.2727 -0.772706 
393 2 66.8409 23.5682 -3.47725 
394 2 69.5454 26.2727 -3.47725 
395 2 69.5454 23.5682 -0.772706 
396 2 66.8409 26.2727 -0.772706 
397 2 72.25 23.5682 -3.47725 
398 2 74.9545 26.2727 -3.47725 
399 2 74.9545 23.5682 -0.772706 
400 2 72.25 26.2727 -0.772706 
401 2 77.6591 23.5682 -3.47725 
402 2 80.3636 26.2727 -3.47725 
403 2 80.3636 23.5682 -0.772706 
404 2 77.6591 26.2727 -0.772706 
405 2 83.0682 23.5682 -3.47725 
406 2 85.7727 26.2727 -3.47725 
407 2 85.7727 23.5682 -0.772706 
408 2 83.0682 26.2727 -0.772706 
409 2 -3.47725 28.9773 -3.47725 
410 2 -0.772706 31.6818 -3.47725 
411 2 -0.772706 28.9773 -0.772706 
412 2 -3.47725 31.6818 -0.772706 
413 2 1.93184 28.9773 -3.47725 
414 2 4.63638 31.6818 -3.47725 
415 2 4.63638 28.9773 -0.772706 
416 2 1.93184 31.6818 -0.772706 
417 2 7.34093 28.9773 -3.47725 
418 2 10.0455 31.6818 -3.47725 
419 2 10.0455 28.9773 -0.772706 
420 2 7.34093 31.6818 -0.772706 
421 2 12.75 28.9773 -3.47725 
422 2 15.4546 31.6818 -3.47725 
423 2 15.4546 28.9773 -0.772706 
424 2 12.75 31.6818 -0.772706 
425 2 18.1591 28.9773 -3.47725 
426 2 20.8636 31.6818 -3.47725 
427 2 20.8636 28.9773 -0.772706 
428 2 18.1591 31.6818 -0.772706 
429 2 23.5682 28.9773 -3.47725 
430 2 26.2727 31.6818 -3.47725 
431 2 26.2727 28.9773 -0.772706 
432 2 23.5682 31.6818 -0.772706 
433 2 28.9773 28.9773 -3.47725 
434 2 31.6818 31.6818 -3.47725 
435 2 31.6818 28.9773 -0.772706 
436 2 28.9773 31.6818 -0.772706 
437 2 34.3864 28.9773 -3.47725 
438 2 37.0909 31.6818 -3.47725 
439 2 37.0909 28.9773 -0.772706 
440 2 34.3864 31.6818 -0.772706 
441 2 39.7955 28.9773 -3.47725 
442 2 42.5 31.6818 -3.47725 
443 2 42.5 28.9773 -0.772706 
444 2 39.7955 31.6818 -0.772706 
445 2 45.2045 28.9773 -3.47725 
446 2 47.9091 31.6818 -3.47725 
447 2 47.9091 28.9773 -0.772706 
448 2 45.2045 31.6818 -0.772706 
449 2 50.6136 28.9773 -3.47725 
450 2 53.3182 31.6818 -3.47725 
451 2 53.3182 28.9773 -0.772706 
452 2 50.6136 31.6818 -0.772706 
453 2 56.0227 28.9773 -3.47725 
454 2 58.7273 31.6818 -3.47725 
455 2 58.7273 28.9773 -0.772706 
456 2 56.0227 31.6818 -0.772706 
457 2 61.4318 28.9773 -3.47725 
458 2 64.1364 31.6818 -3.47725 
459 2 64.1364 28.9773 -0.772706 
460 2 61.4318 31.6818 -0.772706 
461 2 66.8409 28.9773 -3.47725 
462 2 69.5454 31.6818 -3.47725 
463 2 69.5454 28.9773 -0.772706 
464 2 66.8409 31.6818 -0.772706 
465 2 72.25 28.9773 -3.47725 
466 2 74.9545 31.6818 -3.47725 
467 2 74.9545 28.9773 -0.772706 
468 2 72.25 31.6818 -0.772706 
469 2 77.6591 28.9773 -3.47725 
470 2 80.3636 31.6818 -3.47725 
471 2 80.3636 28.9773 -0.772706 
472 2 77.6591 31.6818 -0.772706 
473 2 83.0682 28.9773 -3.47725 
474 2 85.7727 31.6818 -3.47725 
475 2 85.7727 28.9773 -0.772706 
476 2 83.0682 31.6818 -0.772706 
477 2 -3.47725 34.3864 -3.47725 
478 2 -0.772706 37.0909 -3.47725 
479 2 -0.772706 34.3864 -0.772706 
480 2 -3.47725 37.0909 -0.772706 
481 2 1.93184 34.3864 -3.47725 
482 2 4.63638 37.0909 -3.47725 
483 2 4.63638 34.3864 -0.772706 
484 2 1.93184 37.0909 -0.772706 
485 2 7.34093 34.3864 -3.47725 
486 2 10.0455 37.0909 -3.47725 
487 2 10.0455 34.3864 -0.772706 
488 2 7.34093 37.0909 -0.772706 
489 2 12.75 34.3864 -3.47725 
490 2 15.4546 37.0909 -3.47725 
491 2 15.4546 34.3864 -0.772706 
492 2 12.75 37.0909 -0.772706 
493 2 18.1591 34.3864 -3.47725 
494 2 20.8636 37.0909 -3.47725 
495 2 20.8636 34.3864 -0.772706 
496 2 18.1591 37.0909 -0.772706 
497 2 23.5682 34.3864 -3.47725 
498 2 26.2727 37.0909 -3.47725 
499 2 26.2727 34.3864 -0.772706 
500 2 23.5682 37.0909 -0.772706 
501 2 28.9773 34.3864 -3.47725 
502 2 31.6818 37.0909 -3.47725 
503 2 31.6818 34.3864 -0.772706 
504 2 28.9773 37.0909 -0.772706 
505 2 34.3864 34.3864 -3.47725 
506 2 37.0909 37.0909 -3.47725 
507 2 37.0909 34.3864 -0.772706 
508 2 34.3864 37.0909 -0.772706 
509 2 39.7955 34.3864 -3.47725 
510 2 42.5 37.0909 -3.47725 
511 2 42.5 34.3864 -0.772706 
512 2 39.7955 37.0909 -0.772706 
513 2 45.2045 34.3864 -3.47725 
514 2 47.9091 37.0909 -3.47725 
515 2 47.9091 34.3864 -0.772706 
516 2 45.2045 37.0909 -0.772706 
517 2 50.6136 34.3864 -3.47725 
518 2 53.3182 37.0909 -3.47725 
519 2 53.3182 34.3864 -0.772706 
520 2 50.6136 37.0909 -0.772706 
521 2 56.0227 34.3864 -3.47725 
522 2 58.7273 37.0909 -3.47725 
523 2 58.7273 34.3864 -0.772706 
524 2 56.0227 37.0909 -0.772706 
525 2 61.4318 34.3864 -3.47725 
526 2 64.1364 37.0909 -3.47725 
527 2 64.1364 34.3864 -0.772706 
528 2 61.4318 37.0909 -0.772706 
529 2 66.8409 34.3864 -3.47725 
530 2 69.5454 37.0909 -3.47725 
531 2 69.5454 34.3864 -0.772706 
532 2 66.8409 37.0909 -0.772706 
533 2 72.25 34.3864 -3.47725 
534 2 74.9545 37.0909 -3.47725 
535 2 74.9545 34.3864 -0.772706 
536 2 72.25 37.0909 -0.772706 
537 2 77.6591 34.3864 -3.47725 
538 2 80.3636 37.0909 -3.47725 
539 2 80.3636 34.3864 -0.772706 
540 2 77.6591 37.0909 -0.772706 
541 2 83.0682 34.3864 -3.47725 
542 2 85.7727 37.0909 -3.47725 
543 2 85.7727 34.3864 -0.772706 
544 2 83.0682 37.0909 -0.772706 
545 2 -3.47725 39.7955 -3.47725 
546 2 -0.772706 42.5 -3.47725 
547 2 -0.772706 39.7955 -0.772706 
548 2 -3.47725 42.5 -0.772706 
549 2 1.93184 39.7955 -3.47725 
550 2 4.63638 42.5 -3.47725 
551 2 4.63638 39.7955 -0.772706 
552 2 1.93184 42.5 -0.772706 
553 2 7.34093 39.7955 -3.47725 
554 2 10.0455 42.5 -3.47725 
555 2 10.0455 39.7955 -0.772706 
556 2 7.34093 42.5 -0.772706 
557 2 12.75 39.7955 -3.47725 
558 2 15.4546 42.5 -3.47725 
559 2 15.4546 39.7955 -0.772706 
560 2 12.75 42.5 -0.772706 
561 2 18.1591 39.7955 -3.47725 
562 2 20.8636 42.5 -3.47725 
563 2 20.8636 39.7955 -0.772706 
564 2 18.1591 42.5 -0.772706 
565 2 23.5682 39.7955 -3.47725 
566 2 26.2727 42.5 -3.47725 
567 2 26.2727 39.7955 -0.772706 
568 2 23.5682 42.5 -0.772706 
569 2 28.9773 39.7955 -3.47725 
570 2 31.6818 42.5 -3.47725 
571 2 31.6818 39.7955 -0.772706 
572 2 28.9773 42.5 -0.772706 
573 2 34.3864 39.7955 -3.47725 
574 2 37.0909 42.5 -3.47725 
575 2 37.0909 39.7955 -0.772706 
576 2 34.3864 42.5 -0.772706 
577 2 39.7955 39.7955 -3.47725 
578 2 42.5 42.5 -3.47725 
579 2 42.5 39.7955 -0.772706 
580 2 39.7955 42.5 -0.772706 
581 2 45.2045 39.7955 -3.47725 
582 2 47.9091 42.5 -3.47725 
583 2 47.9091 39.7955 -0.772706 
584 2 45.2045 42.5 -0.772706 
585 2 50.6136 39.7955 -3.47725 
586 2 53.3182 42.5 -3.47725 
587 2 53.3182 39.7955 -0.772706 
588 2 50.6136 42.5 -0.772706 
589 2 56.0227 39.7955 -3.47725 
590 2 58.7273 42.5 -3.47725 
591 2 58.7273 39.7955 -0.772706 
592 2 56.0227 42.5 -0.772706 
593 2 61.4318 39.7955 -3.47725 
594 2 64.1364 42.5 -3.47725 
595 2 64.1364 39.7955 -0.772706 
596 2 61.4318 42.5 -0.772706 
597 2 66.8409 39.7955 -3.47725 
598 2 69.5454 42.5 -3.47725 
599 2 69.5454 39.7955 -0.772706 
600 2 66.8409 42.5 -0.772706 
601 2 72.25 39.7955 -3.47725 
602 2 74.9545 42.5 -3.47725 
603 2 74.9545 39.7955 -0.772706 
604 2 72.25 42.5 -0.772706 
605 2 77.6591 39.7955 -3.47725 
606 2 80.3636 42.5 -3.47725 
607 2 80.3636 39.7955 -0.772706 
608 2 77.6591 42.5 -0.772706 
609 2 83.0682 39.7955 -3.47725 
610 2 85.7727 42.5 -3.47725 
611 2 85.7727 39.7955 -0.772706 
612 2 83.0682 42.5 -0.772706 
613 2 -3.47725 45.2045 -3.47725 
614 2 -0.772706 47.9091 -3.47725 
615 2 -0.772706 45.2045 -0.772706 
616 2 -3.47725 47.9091 -0.772706 
617 2 1.93184 45.2045 -3.47725 
618 2 4.63638 47.9091 -3.47725 
619 2 4.63638 45.2045 -0.772706 
620 2 1.93184 47.9091 -0.772706 
621 2 7.34093 45.2045 -3.47725 
622 2 10.0455 47.9091 -3.47725 
623 2 10.0455 45.2045 -0.772706 
624 2 7.34093 47.9091 -0.772706 
625 2 12.75 45.2045 -3.47725 
626 2 15.4546 47.9091 -3.47725 
627 2 15.4546 45.2045 -0.772706 
628 2 12.75 47.9091 -0.772706 
629 2 18.1591 45.2045 -3.47725 
630 2 20.8636 47.9091 -3.47725 
631 2 20.8636 45.2045 -0.772706 
632 2 18.1591 47.9091 -0.772706 
633 2 23.5682 45.2045 -3.47725 
634 2 26.2727 47.9091 -3.47725 
635 2 26.2727 45.2045 -0.772706 
636 2 23.5682 47.9091 -0.772706 
637 2 28.9773 45.2045 -3.47725 
638 2 31.6818 47.9091 -3.47725 
639 2 31.6818 45.2045 -0.772706 
640 2 28.9773 47.9091 -0.772706 
641 2 34.3864 45.2045 -3.47725 
642 2 37.0909 47.9091 -3.47725 
643 2 37.0909 45.2045 -0.772706 
644 2 34.3864 47.9091 -0.772706 
645 2 39.7955 45.2045 -3.47725 
646 2 42.5 47.9091 -3.47725 
647 2 42.5 45.2045 -0.772706 
648 2 39.7955 47.9091 -0.772706 
649 2 45.2045 45.2045 -3.47725 
650 2 47.9091 47.9091 -3.47725 
651 2 47.9091 45.2045 -0.772706 
652 2 45.2045 47.9091 -0.772706 
653 2 50.6136 45.2045 -3.47725 
654 2 53.3182 47.9091 -3.47725 
655 2 53.3182 45.2045 -0.772706 
656 2 50.6136 47.9091 -0.772706 
657 2 56.0227 45.2045 -3.47725 
658 2 58.7273 47.9091 -3.47725 
659 2 58.7273 45.2045 -0.772706 
660 2 56.0227 47.9091 -0.772706 
661 2 61.4318 45.2045 -3.47725 
662 2 64.1364 47.9091 -3.47725 
663 2 64.1364 45.2045 -0.772706 
664 2 61.4318 47.9091 -0.772706 
665 2 66.8409 45.2045 -3.47725 
666 2 69.5454 47.9091 -3.47725 
667 2 69.5454 45.2045 -0.772706 
668 2 66.8409 47.9091 -0.772706 
669 2 72.25 45.2045 -3.47725 
670 2 74.9545 47.9091 -3.47725 
671 2 74.9545 45.2045 -0.772706 
672 2 72.25 47.9091 -0.772706 
673 2 77.6591 45.2045 -3.47725 
674 2 80.3636 47.9091 -3.47725 
675 2 80.3636 45.2045 -0.772706 
676 2 77.6591 47.9091 -0.772706 
677 2 83.0682 45.2045 -3.47725 
678 2 85.7727 47.9091 -3.47725 
679 2 85.7727 45.2045 -0.772706 
680 2 83.0682 47.9091 -0.772706 
681 2 -3.47725 50.6136 -3.47725 
682 2 -0.772706 53.3182 -3.47725 
683 2 -0.772706 50.6136 -0.772706 
684 2 -3.47725 53.3182 -0.772706 
685 2 1.93184 50.6136 -3.47725 
686 2 4.63638 53.3182 -3.47725 
687 2 4.63638 50.6136 -0.772706 
688 2 1.93184 53.3182 -0.772706 
689 2 7.34093 50.6136 -3.47725 
690 2 10.0455 53.3182 -3.47725 
691 2 10.0455 50.6136 -0.772706 
692 2 7.34093 53.3182 -0.772706 
693 2 12.75 50.6136 -3.47725 
694 2 15.4546 53.3182 -3.47725 
695 2 15.4546 50.6136 -0.772706 
696 2 12.75 53.3182 -0.772706 
697 2 18.1591 50.6136 -3.47725 
698 2 20.8636 53.3182 -3.47725 
699 2 20.8636 50.6136 -0.772706 
700 2 18.1591 53.3182 -0.772706 
701 2 23.5682 50.6136 -3.47725 
702 2 26.2727 53.3182 -3.47725 
703 2 26.2727 50.6136 -0.772706 
704 2 23.5682 53.3182 -0.772706 
705 2 28.9773 50.6136 -3.47725 
706 2 31.6818 53.3182 -3.47725 
707 2 31.6818 50.6136 -0.772706 
708 2 28.9773 53.3182 -0.772706 
709 2 34.3864 50.6136 -3.47725 
710 2 37.0909 53.3182 -3.47725 
711 2 37.0909 50.6136 -0.772706 
712 2 34.3864 53.3182 -0.772706 
713 2 39.7955 50.6136 -3.47725 
714 2 42.5 53.3182 -3.47725 
715 2 42.5 50.6136 -0.772706 
716 2 39.7955 53.3182 -0.772706 
717 2 45.2045 50.6136 -3.47725 
718 2 47.9091 53.3182 -3.47725 
719 2 47.9091 50.6136 -0.772706 
720 2 45.2045 53.3182 -0.772706 
721 2 50.6136 50.6136 -3.47725 
722 2 53.3182 53.3182 -3.47725 
723 2 53.3182 50.6136 -0.772706 
724 2 50.6136 53.3182 -0.772706 
725 2 56.0227 50.6136 -3.47725 
726 2 58.7273 53.3182 -3.47725 
727 2 58.7273 50.6136 -0.772706 
728 2 56.0227 53.3182 -0.772706 
729 2 61.4318 50.6136 -3.47725 
730 2 64.1364 53.3182 -3.47725 
731 2 64.1364 50.6136 -0.772706 
732 2 61.4318 53.3182 -0.772706 
733 2 66.8409 50.6136 -3.47725 
734 2 69.5454 53.3182 -3.47725 
735 2 69.5454 50.6136 -0.772706 
736 2 66.8409 53.3182 -0.772706 
737 2 72.25 50.6136 -3.47725 
738 2 74.9545 53.3182 -3.47725 
739 2 74.9545 50.6136 -0.772706 
740 2 72.25 53.3182 -0.772706 
741 2 77.6591 50.6136 -3.47725 
742 2 80.3636 53.3182 -3.47725 
743 2 80.3636 50.6136 -0.772706 
744 2 77.6591 53.3182 -0.772706 
745 2 83.0682 50.6136 -3.47725 
746 2 85.7727 53.3182 -3.47725 
747 2 85.7727 50.6136 -0.772706 
748 2 83.0682 53.3182 -0.772706 
749 2 -3.47725 56.0227 -3.47725 
750 2 -0.772706 58.7273 -3.47725 
751 2 -0.772706 56.0227 -0.772706 
752 2 -3.47725 58.7273 -0.772706 
753 2 1.93184 56.0227 -3.47725 
754 2 4.63638 58.7273 -3.47725 
755 2 4.63638 56.0227 -0.772706 
756 2 1.93184 58.7273 -0.772706 
757 2 7.34093 56.0227 -3.47725 
758 2 10.0455 58.7273 -3.47725 
759 2 10.0455 56.0227 -0.772706 
760 2 7.34093 58.7273 -0.772706 
761 2 12.75 56.0227 -3.47725 
762 2 15.4546 58.7273 -3.47725 
763 2 15.4546 56.0227 -0.772706 
764 2 12.75 58.7273 -0.772706 
765 2 18.1591 56.0227 -3.47725 
766 2 20.8636 58.7273 -3.47725 
767 2 20.8636 56.0227 -0.772706 
768 2 18.1591 58.7273 -0.772706 
769 2 23.5682 56.0227 -3.47725 
770 2 26.2727 58.7273 -3.47725 
771 2 26.2727 56.0227 -0.772706 
772 2 23.5682 58.7273 -0.772706 
773 2 28.9773 56.0227 -3.47725 
774 2 31.6818 58.7273 -3.47725 
775 2 31.6818 56.0227 -0.772706 
776 2 28.9773 58.7273 -0.772706 
777 2 34.3864 56.0227 -3.47725 
778 2 37.0909 58.7273 -3.47725 
779 2 37.0909 56.0227 -0.772706 
780 2 34.3864 58.7273 -0.772706 
781 2 39.7955 56.0227 -3.47725 
782 2 42.5 58.7273 -3.47725 
783 2 42.5 56.0227 -0.772706 
784 2 39.7955 58.7273 -0.772706 
785 2 45.2045 56.0227 -3.47725 
786 2 47.9091 58.7273 -3.47725 
787 2 47.9091 56.0227 -0.772706 
788 2 45.2045 58.7273 -0.772706 
789 2 50.6136 56.0227 -3.47725 
790 2 53.3182 58.7273 -3.47725 
791 2 53.3182 56.0227 -0.772706 
792 2 50.6136 58.7273 -0.772706 
793 2 56.0227 56.0227 -3.47725 
794 2 58.7273 58.7273 -3.47725 
795 2 58.7273 56.0227 -0.772706 
796 2 56.0227 58.7273 -0.772706 
797 2 61.4318 56.0227 -3.47725 
798 2 64.1364 58.7273 -3.47725 
799 2 64.1364 56.0227 -0.772706 
800 2 61.4318 58.7273 -0.772706 
801 2 66.8409 56.0227 -3.47725 
802 2 69.5454 58.7273 -3.47725 
803 2 69.5454 56.0227 -0.772706 
804 2 66.8409 58.7273 -0.772706 
805 2 72.25 56.0227 -3.47725 
806 2 74.9545 58.7273 -3.47725 
807 2 74.9545 56.0227 -0.772706 
808 2 72.25 58.7273 -0.772706 
809 2 77.6591 56.0227 -3.47725 
810 2 80.3636 58.7273 -3.47725 
811 2 80.3636 56.0227 -0.772706 
812 2 77.6591 58.7273 -0.772706 
813 2 83.0682 56.0227 -3.47725 
814 2 85.7727 58.7273 -3.47725 
815 2 85.7727 56.0227 -0.772706 
816 2 83.0682 58.7273 -0.772706 
817 2 -3.47725 61.4318 -3.47725 
818 2 -0.772706 64.1364 -3.47725 
819 2 -0.772706 61.4318 -0.772706 
820 2 -3.47725 64.1364 -0.772706 
821 2 1.93184 61.4318 -3.47725 
822 2 4.63638 64.1364 -3.47725 
823 2 4.63638 61.4318 -0.772706 
824 2 1.93184 64.1364 -0.772706 
825 2 7.34093 61.4318 -3.47725 
826 2 10.0455 64.1364 -3.47725 
827 2 10.0455 61.4318 -0.772706 
828 2 7.34093 64.1364 -0.772706 
829 2 12.75 61.4318 -3.47725 
830 2 15.4546 64.1364 -3.47725 
831 2 15.4546 61.4318 -0.772706 
832 2 12.75 64.1364 -0.772706 
833 2 18.1591 61.4318 -3.47725 
834 2 20.8636 64.1364 -3.47725 
835 2 20.8636 61.4318 -0.772706 
836 2 18.1591 64.1364 -0.772706 
837 2 23.5682 61.4318 -3.47725 
838 2 26.2727 64.1364 -3.47725 
839 2 26.2727 61.4318 -0.772706 
840 2 23.5682 64.1364 -0.772706 
841 2 28.9773 61.4318 -3.47725 
842 2 31.6818 64.1364 -3.47725 
843 2 31.6818 61.4318 -0.772706 
844 2 28.9773 64.1364 -0.772706 
845 2 34.3864 61.4318 -3.47725 
846 2 37.0909 64.1364 -3.47725 
847 2 37.0909 61.4318 -0.772706 
848 2 34.3864 64.1364 -0.772706 
849 2 39.7955 61.4318 -3.47725 
850 2 42.5 64.1364 -3.47725 
851 2 42.5 61.4318 -0.772706 
852 2 39.7955 64.1364 -0.772706 
853 2 45.2045 61.4318 -3.47725 
854 2 47.9091 64.1364 -3.47725 
855 2 47.9091 61.4318 -0.772706 
856 2 45.2045 64.1364 -0.772706 
857 2 50.6136 61.4318 -3.47725 
858 2 53.3182 64.1364 -3.47725 
859 2 53.3182 61.4318 -0.772706 
860 2 50.6136 64.1364 -0.772706 
861 2 56.0227 61.4318 -3.47725 
862 2 58.7273 64.1364 -3.47725 
863 2 58.7273 61.4318 -0.772706 
864 2 56.0227 64.1364 -0.772706 
865 2 61.4318 61.4318 -3.47725 
866 2 64.1364 64.1364 -3.47725 
867 2 64.1364 61.4318 -0.772706 
868 2 61.4318 64.1364 -0.772706 
869 2 66.8409 61.4318 -3.47725 
870 2 69.5454 64.1364 -3.47725 
871 2 69.5454 61.4318 -0.772706 
872 2 66.8409 64.1364 -0.772706 
873 2 72.25 61.4318 -3.47725 
874 2 74.9545 64.1364 -3.47725 
875 2 74.9545 61.4318 -0.772706 
876 2 72.25 64.1364 -0.772706 
877 2 77.6591 61.4318 -3.47725 
878 2 80.3636 64.1364 -3.47725 
879 2 80.3636 61.4318 -0.772706 
880 2 77.6591 64.1364 -0.772706 
881 2 83.0682 61.4318 -3.47725 
882 2 85.7727 64.1364 -3.47725 
883 2 85.7727 61.4318 -0.772706 
884 2 83.0682 64.1364 -0.772706 
885 2 -3.47725 66.8409 -3.47725 
886 2 -0.772706 69.5454 -3.47725 
887 2 -0.772706 66.8409 -0.772706 
888 2 -3.47725 69.5454 -0.772706 
889 2 1.93184 66.8409 -3.47725 
890 2 4.63638 69.5454 -3.47725 
891 2 4.63638 66.8409 -0.772706 
892 2 1.93184 69.5454 -0.772706 
893 2 7.34093 66.8409 -3.47725 
894 2 10.0455 69.5454 -3.47725 
895 2 10.0455 66.8409 -0.772706 
896 2 7.34093 69.5454 -0.772706 
897 2 12.75 66.8409 -3.47725 
898 2 15.4546 69.5454 -3.47725 
899 2 15.4546 66.8409 -0.772706 
900 2 12.75 69.5454 -0.772706 
901 2 18.1591 66.8409 -3.47725 
902 2 20.8636 69.5454 -3.47725 
903 2 20.8636 66.8409 -0.772706 
904 2 18.1591 69.5454 -0.772706 
905 2 23.5682 66.8409 -3.47725 
906 2 26.2727 69.5454 -3.47725 
907 2 26.2727 66.8409 -0.772706 
908 2 23.5682 69.5454 -0.772706 
909 2 28.9773 66.8409 -3.47725 
910 2 31.6818 69.5454 -3.47725 
911 2 31.6818 66.8409 -0.772706 
912 2 28.9773 69.5454 -0.772706 
913 2 34.3864 66.8409 -3.47725 
914 2 37.0909 69.5454 -3.47725 
915 2 37.0909 66.8409 -0.772706 
916 2 34.3864 69.5454 -0.772706 
917 2 39.7955 66.8409 -3.47725 
918 2 42.5 69.5454 -3.47725 
919 2 42.5 66.8409 -0.772706 
920 2 39.7955 69.5454 -0.772706 
921 2 45.2045 66.8409 -3.47725 
922 2 47.9091 69.5454 -3.47725 
923 2 47.9091 66.8409 -0.772706 
924 2 45.2045 69.5454 -0.772706 