ITEM: TIMESTEP
89
ITEM: NUMBER OF ATOMS
19652
ITEM: BOX BOUNDS pp pp pp
1.8160238622657889e+01 6.6839761377341773e+01
3.1454455972017964e+01 1.1576986267133702e+02
2.9655545488463549e+01 1.0914887326924973e+02
ITEM: ATOMS id type xu yu zu 
1 2 18.1602 31.4545 29.6555 
2 2 19.592 33.9343 29.6555 
3 2 19.592 35.5876 31.9936 
4 2 18.1602 33.1077 31.9936 
5 2 21.0237 31.4545 29.6555 
6 2 22.4555 33.9343 29.6555 
7 2 22.4555 35.5876 31.9936 
8 2 21.0237 33.1077 31.9936 
9 2 23.8872 31.4545 29.6555 
10 2 25.319 33.9343 29.6555 
11 2 25.319 35.5876 31.9936 
12 2 23.8872 33.1077 31.9936 
13 2 26.7507 31.4545 29.6555 
14 2 28.1825 33.9343 29.6555 
15 2 28.1825 35.5876 31.9936 
16 2 26.7507 33.1077 31.9936 
17 2 29.6142 31.4545 29.6555 
18 2 31.046 33.9343 29.6555 
19 2 31.046 35.5876 31.9936 
20 2 29.6142 33.1077 31.9936 
21 2 32.4777 31.4545 29.6555 
22 2 33.9095 33.9343 29.6555 
23 2 33.9095 35.5876 31.9936 
24 2 32.4777 33.1077 31.9936 
25 2 35.3412 31.4545 29.6555 
26 2 36.773 33.9343 29.6555 
27 2 36.773 35.5876 31.9936 
28 2 35.3412 33.1077 31.9936 
29 2 38.2047 31.4545 29.6555 
30 2 39.6365 33.9343 29.6555 
31 2 39.6365 35.5876 31.9936 
32 2 38.2047 33.1077 31.9936 
33 2 41.0682 31.4545 29.6555 
34 2 42.5 33.9343 29.6555 
35 2 42.5 35.5876 31.9936 
36 2 41.0682 33.1077 31.9936 
37 2 43.9318 31.4545 29.6555 
38 2 45.3635 33.9343 29.6555 
39 2 45.3635 35.5876 31.9936 
40 2 43.9318 33.1077 31.9936 
41 2 46.7953 31.4545 29.6555 
42 2 48.227 33.9343 29.6555 
43 2 48.227 35.5876 31.9936 
44 2 46.7953 33.1077 31.9936 
45 2 49.6588 31.4545 29.6555 
46 2 51.0905 33.9343 29.6555 
47 2 51.0905 35.5876 31.9936 
48 2 49.6588 33.1077 31.9936 
49 2 52.5223 31.4545 29.6555 
50 2 53.954 33.9343 29.6555 
51 2 53.954 35.5876 31.9936 
52 2 52.5223 33.1077 31.9936 
53 2 55.3858 31.4545 29.6555 
54 2 56.8175 33.9343 29.6555 
55 2 56.8175 35.5876 31.9936 
56 2 55.3858 33.1077 31.9936 
57 2 58.2493 31.4545 29.6555 
58 2 59.681 33.9343 29.6555 
59 2 59.681 35.5876 31.9936 
60 2 58.2493 33.1077 31.9936 
61 2 61.1128 31.4545 29.6555 
62 2 62.5445 33.9343 29.6555 
63 2 62.5445 35.5876 31.9936 
64 2 61.1128 33.1077 31.9936 
65 2 63.9763 31.4545 29.6555 
66 2 65.408 33.9343 29.6555 
67 2 65.408 35.5876 31.9936 
68 2 63.9763 33.1077 31.9936 
69 2 18.1602 36.4142 29.6555 
70 2 19.592 38.8941 29.6555 
71 2 19.592 40.5473 31.9936 
72 2 18.1602 38.0674 31.9936 
73 2 21.0237 36.4142 29.6555 
74 2 22.4555 38.8941 29.6555 
75 2 22.4555 40.5473 31.9936 
76 2 21.0237 38.0674 31.9936 
77 2 23.8872 36.4142 29.6555 
78 2 25.319 38.8941 29.6555 
79 2 25.319 40.5473 31.9936 
80 2 23.8872 38.0674 31.9936 
81 2 26.7507 36.4142 29.6555 
82 2 28.1825 38.8941 29.6555 
83 2 28.1825 40.5473 31.9936 
84 2 26.7507 38.0674 31.9936 
85 2 29.6142 36.4142 29.6555 
86 2 31.046 38.8941 29.6555 
87 2 31.046 40.5473 31.9936 
88 2 29.6142 38.0674 31.9936 
89 2 32.4777 36.4142 29.6555 
90 2 33.9095 38.8941 29.6555 
91 2 33.9095 40.5473 31.9936 
92 2 32.4777 38.0674 31.9936 
93 2 35.3412 36.4142 29.6555 
94 2 36.773 38.8941 29.6555 
95 2 36.773 40.5473 31.9936 
96 2 35.3412 38.0674 31.9936 
97 2 38.2047 36.4142 29.6555 
98 2 39.6365 38.8941 29.6555 
99 2 39.6365 40.5473 31.9936 
100 2 38.2047 38.0674 31.9936 
101 2 41.0682 36.4142 29.6555 
102 2 42.5 38.8941 29.6555 
103 2 42.5 40.5473 31.9936 
104 2 41.0682 38.0674 31.9936 
105 2 43.9318 36.4142 29.6555 
106 2 45.3635 38.8941 29.6555 
107 2 45.3635 40.5473 31.9936 
108 2 43.9318 38.0674 31.9936 
109 2 46.7953 36.4142 29.6555 
110 2 48.227 38.8941 29.6555 
111 2 48.227 40.5473 31.9936 
112 2 46.7953 38.0674 31.9936 
113 2 49.6588 36.4142 29.6555 
114 2 51.0905 38.8941 29.6555 
115 2 51.0905 40.5473 31.9936 
116 2 49.6588 38.0674 31.9936 
117 2 52.5223 36.4142 29.6555 
118 2 53.954 38.8941 29.6555 
119 2 53.954 40.5473 31.9936 
120 2 52.5223 38.0674 31.9936 
121 2 55.3858 36.4142 29.6555 
122 2 56.8175 38.8941 29.6555 
123 2 56.8175 40.5473 31.9936 
124 2 55.3858 38.0674 31.9936 
125 2 58.2493 36.4142 29.6555 
126 2 59.681 38.8941 29.6555 
127 2 59.681 40.5473 31.9936 
128 2 58.2493 38.0674 31.9936 
129 2 61.1128 36.4142 29.6555 
130 2 62.5445 38.8941 29.6555 
131 2 62.5445 40.5473 31.9936 
132 2 61.1128 38.0674 31.9936 
133 2 63.9763 36.4142 29.6555 
134 2 65.408 38.8941 29.6555 
135 2 65.408 40.5473 31.9936 
136 2 63.9763 38.0674 31.9936 
137 2 18.1602 41.3739 29.6555 
138 2 19.592 43.8538 29.6555 
139 2 19.592 45.507 31.9936 
140 2 18.1602 43.0272 31.9936 
141 2 21.0237 41.3739 29.6555 
142 2 22.4555 43.8538 29.6555 
143 2 22.4555 45.507 31.9936 
144 2 21.0237 43.0272 31.9936 
145 2 23.8872 41.3739 29.6555 
146 2 25.319 43.8538 29.6555 
147 2 25.319 45.507 31.9936 
148 2 23.8872 43.0272 31.9936 
149 2 26.7507 41.3739 29.6555 
150 2 28.1825 43.8538 29.6555 
151 2 28.1825 45.507 31.9936 
152 2 26.7507 43.0272 31.9936 
153 2 29.6142 41.3739 29.6555 
154 2 31.046 43.8538 29.6555 
155 2 31.046 45.507 31.9936 
156 2 29.6142 43.0272 31.9936 
157 2 32.4777 41.3739 29.6555 
158 2 33.9095 43.8538 29.6555 
159 2 33.9095 45.507 31.9936 
160 2 32.4777 43.0272 31.9936 
161 2 35.3412 41.3739 29.6555 
162 2 36.773 43.8538 29.6555 
163 2 36.773 45.507 31.9936 
164 2 35.3412 43.0272 31.9936 
165 2 38.2047 41.3739 29.6555 
166 2 39.6365 43.8538 29.6555 
167 2 39.6365 45.507 31.9936 
168 2 38.2047 43.0272 31.9936 
169 2 41.0682 41.3739 29.6555 
170 2 42.5 43.8538 29.6555 
171 2 42.5 45.507 31.9936 
172 2 41.0682 43.0272 31.9936 
173 2 43.9318 41.3739 29.6555 
174 2 45.3635 43.8538 29.6555 
175 2 45.3635 45.507 31.9936 
176 2 43.9318 43.0272 31.9936 
177 2 46.7953 41.3739 29.6555 
178 2 48.227 43.8538 29.6555 
179 2 48.227 45.507 31.9936 
180 2 46.7953 43.0272 31.9936 
181 2 49.6588 41.3739 29.6555 
182 2 51.0905 43.8538 29.6555 
183 2 51.0905 45.507 31.9936 
184 2 49.6588 43.0272 31.9936 
185 2 52.5223 41.3739 29.6555 
186 2 53.954 43.8538 29.6555 
187 2 53.954 45.507 31.9936 
188 2 52.5223 43.0272 31.9936 
189 2 55.3858 41.3739 29.6555 
190 2 56.8175 43.8538 29.6555 
191 2 56.8175 45.507 31.9936 
192 2 55.3858 43.0272 31.9936 
193 2 58.2493 41.3739 29.6555 
194 2 59.681 43.8538 29.6555 
195 2 59.681 45.507 31.9936 
196 2 58.2493 43.0272 31.9936 
197 2 61.1128 41.3739 29.6555 
198 2 62.5445 43.8538 29.6555 
199 2 62.5445 45.507 31.9936 
200 2 61.1128 43.0272 31.9936 
201 2 63.9763 41.3739 29.6555 
202 2 65.408 43.8538 29.6555 
203 2 65.408 45.507 31.9936 
204 2 63.9763 43.0272 31.9936 
205 2 18.1602 46.3336 29.6555 
206 2 19.592 48.8135 29.6555 
207 2 19.592 50.4668 31.9936 
208 2 18.1602 47.9869 31.9936 
209 2 21.0237 46.3336 29.6555 
210 2 22.4555 48.8135 29.6555 
211 2 22.4555 50.4668 31.9936 
212 2 21.0237 47.9869 31.9936 
213 2 23.8872 46.3336 29.6555 
214 2 25.319 48.8135 29.6555 
215 2 25.319 50.4668 31.9936 
216 2 23.8872 47.9869 31.9936 
217 2 26.7507 46.3336 29.6555 
218 2 28.1825 48.8135 29.6555 
219 2 28.1825 50.4668 31.9936 
220 2 26.7507 47.9869 31.9936 
221 2 29.6142 46.3336 29.6555 
222 2 31.046 48.8135 29.6555 
223 2 31.046 50.4668 31.9936 
224 2 29.6142 47.9869 31.9936 
225 2 32.4777 46.3336 29.6555 
226 2 33.9095 48.8135 29.6555 
227 2 33.9095 50.4668 31.9936 
228 2 32.4777 47.9869 31.9936 
229 2 35.3412 46.3336 29.6555 
230 2 36.773 48.8135 29.6555 
231 2 36.773 50.4668 31.9936 
232 2 35.3412 47.9869 31.9936 
233 2 38.2047 46.3336 29.6555 
234 2 39.6365 48.8135 29.6555 
235 2 39.6365 50.4668 31.9936 
236 2 38.2047 47.9869 31.9936 
237 2 41.0682 46.3336 29.6555 
238 2 42.5 48.8135 29.6555 
239 2 42.5 50.4668 31.9936 
240 2 41.0682 47.9869 31.9936 
241 2 43.9318 46.3336 29.6555 
242 2 45.3635 48.8135 29.6555 
243 2 45.3635 50.4668 31.9936 
244 2 43.9318 47.9869 31.9936 
245 2 46.7953 46.3336 29.6555 
246 2 48.227 48.8135 29.6555 
247 2 48.227 50.4668 31.9936 
248 2 46.7953 47.9869 31.9936 
249 2 49.6588 46.3336 29.6555 
250 2 51.0905 48.8135 29.6555 
251 2 51.0905 50.4668 31.9936 
252 2 49.6588 47.9869 31.9936 
253 2 52.5223 46.3336 29.6555 
254 2 53.954 48.8135 29.6555 
255 2 53.954 50.4668 31.9936 
256 2 52.5223 47.9869 31.9936 
257 2 55.3858 46.3336 29.6555 
258 2 56.8175 48.8135 29.6555 
259 2 56.8175 50.4668 31.9936 
260 2 55.3858 47.9869 31.9936 
261 2 58.2493 46.3336 29.6555 
262 2 59.681 48.8135 29.6555 
263 2 59.681 50.4668 31.9936 
264 2 58.2493 47.9869 31.9936 
265 2 61.1128 46.3336 29.6555 
266 2 62.5445 48.8135 29.6555 
267 2 62.5445 50.4668 31.9936 
268 2 61.1128 47.9869 31.9936 
269 2 63.9763 46.3336 29.6555 
270 2 65.408 48.8135 29.6555 
271 2 65.408 50.4668 31.9936 
272 2 63.9763 47.9869 31.9936 
273 2 18.1602 51.2934 29.6555 
274 2 19.592 53.7732 29.6555 
275 2 19.592 55.4265 31.9936 
276 2 18.1602 52.9466 31.9936 
277 2 21.0237 51.2934 29.6555 
278 2 22.4555 53.7732 29.6555 
279 2 22.4555 55.4265 31.9936 
280 2 21.0237 52.9466 31.9936 
281 2 23.8872 51.2934 29.6555 
282 2 25.319 53.7732 29.6555 
283 2 25.319 55.4265 31.9936 
284 2 23.8872 52.9466 31.9936 
285 2 26.7507 51.2934 29.6555 
286 2 28.1825 53.7732 29.6555 
287 2 28.1825 55.4265 31.9936 
288 2 26.7507 52.9466 31.9936 
289 2 29.6142 51.2934 29.6555 
290 2 31.046 53.7732 29.6555 
291 2 31.046 55.4265 31.9936 
292 2 29.6142 52.9466 31.9936 
293 2 32.4777 51.2934 29.6555 
294 2 33.9095 53.7732 29.6555 
295 2 33.9095 55.4265 31.9936 
296 2 32.4777 52.9466 31.9936 
297 2 35.3412 51.2934 29.6555 
298 2 36.773 53.7732 29.6555 
299 2 36.773 55.4265 31.9936 
300 2 35.3412 52.9466 31.9936 
301 2 38.2047 51.2934 29.6555 
302 2 39.6365 53.7732 29.6555 
303 2 39.6365 55.4265 31.9936 
304 2 38.2047 52.9466 31.9936 
305 2 41.0682 51.2934 29.6555 
306 2 42.5 53.7732 29.6555 
307 2 42.5 55.4265 31.9936 
308 2 41.0682 52.9466 31.9936 
309 2 43.9318 51.2934 29.6555 
310 2 45.3635 53.7732 29.6555 
311 2 45.3635 55.4265 31.9936 
312 2 43.9318 52.9466 31.9936 
313 2 46.7953 51.2934 29.6555 
314 2 48.227 53.7732 29.6555 
315 2 48.227 55.4265 31.9936 
316 2 46.7953 52.9466 31.9936 
317 2 49.6588 51.2934 29.6555 
318 2 51.0905 53.7732 29.6555 
319 2 51.0905 55.4265 31.9936 
320 2 49.6588 52.9466 31.9936 
321 2 52.5223 51.2934 29.6555 
322 2 53.954 53.7732 29.6555 
323 2 53.954 55.4265 31.9936 
324 2 52.5223 52.9466 31.9936 
325 2 55.3858 51.2934 29.6555 
326 2 56.8175 53.7732 29.6555 
327 2 56.8175 55.4265 31.9936 
328 2 55.3858 52.9466 31.9936 
329 2 58.2493 51.2934 29.6555 
330 2 59.681 53.7732 29.6555 
331 2 59.681 55.4265 31.9936 
332 2 58.2493 52.9466 31.9936 
333 2 61.1128 51.2934 29.6555 
334 2 62.5445 53.7732 29.6555 
335 2 62.5445 55.4265 31.9936 
336 2 61.1128 52.9466 31.9936 
337 2 63.9763 51.2934 29.6555 
338 2 65.408 53.7732 29.6555 
339 2 65.408 55.4265 31.9936 
340 2 63.9763 52.9466 31.9936 
341 2 18.1602 56.2531 29.6555 
342 2 19.592 58.733 29.6555 
343 2 19.592 60.3862 31.9936 
344 2 18.1602 57.9063 31.9936 
345 2 21.0237 56.2531 29.6555 
346 2 22.4555 58.733 29.6555 
347 2 22.4555 60.3862 31.9936 
348 2 21.0237 57.9063 31.9936 
349 2 23.8872 56.2531 29.6555 
350 2 25.319 58.733 29.6555 
351 2 25.319 60.3862 31.9936 
352 2 23.8872 57.9063 31.9936 
353 2 26.7507 56.2531 29.6555 
354 2 28.1825 58.733 29.6555 
355 2 28.1825 60.3862 31.9936 
356 2 26.7507 57.9063 31.9936 
357 2 29.6142 56.2531 29.6555 
358 2 31.046 58.733 29.6555 
359 2 31.046 60.3862 31.9936 
360 2 29.6142 57.9063 31.9936 
361 2 32.4777 56.2531 29.6555 
362 2 33.9095 58.733 29.6555 
363 2 33.9095 60.3862 31.9936 
364 2 32.4777 57.9063 31.9936 
365 2 35.3412 56.2531 29.6555 
366 2 36.773 58.733 29.6555 
367 2 36.773 60.3862 31.9936 
368 2 35.3412 57.9063 31.9936 
369 2 38.2047 56.2531 29.6555 
370 2 39.6365 58.733 29.6555 
371 2 39.6365 60.3862 31.9936 
372 2 38.2047 57.9063 31.9936 
373 2 41.0682 56.2531 29.6555 
374 2 42.5 58.733 29.6555 
375 2 42.5 60.3862 31.9936 
376 2 41.0682 57.9063 31.9936 
377 2 43.9318 56.2531 29.6555 
378 2 45.3635 58.733 29.6555 
379 2 45.3635 60.3862 31.9936 
380 2 43.9318 57.9063 31.9936 
381 2 46.7953 56.2531 29.6555 
382 2 48.227 58.733 29.6555 
383 2 48.227 60.3862 31.9936 
384 2 46.7953 57.9063 31.9936 
385 2 49.6588 56.2531 29.6555 
386 2 51.0905 58.733 29.6555 
387 2 51.0905 60.3862 31.9936 
388 2 49.6588 57.9063 31.9936 
389 2 52.5223 56.2531 29.6555 
390 2 53.954 58.733 29.6555 
391 2 53.954 60.3862 31.9936 
392 2 52.5223 57.9063 31.9936 
393 2 55.3858 56.2531 29.6555 
394 2 56.8175 58.733 29.6555 
395 2 56.8175 60.3862 31.9936 
396 2 55.3858 57.9063 31.9936 
397 2 58.2493 56.2531 29.6555 
398 2 59.681 58.733 29.6555 
399 2 59.681 60.3862 31.9936 
400 2 58.2493 57.9063 31.9936 
401 2 61.1128 56.2531 29.6555 
402 2 62.5445 58.733 29.6555 
403 2 62.5445 60.3862 31.9936 
404 2 61.1128 57.9063 31.9936 
405 2 63.9763 56.2531 29.6555 
406 2 65.408 58.733 29.6555 
407 2 65.408 60.3862 31.9936 
408 2 63.9763 57.9063 31.9936 
409 2 18.1602 61.2128 29.6555 
410 2 19.592 63.6927 29.6555 
411 2 19.592 65.3459 31.9936 
412 2 18.1602 62.8661 31.9936 
413 2 21.0237 61.2128 29.6555 
414 2 22.4555 63.6927 29.6555 
415 2 22.4555 65.3459 31.9936 
416 2 21.0237 62.8661 31.9936 
417 2 23.8872 61.2128 29.6555 
418 2 25.319 63.6927 29.6555 
419 2 25.319 65.3459 31.9936 
420 2 23.8872 62.8661 31.9936 
421 2 26.7507 61.2128 29.6555 
422 2 28.1825 63.6927 29.6555 
423 2 28.1825 65.3459 31.9936 
424 2 26.7507 62.8661 31.9936 
425 2 29.6142 61.2128 29.6555 
426 2 31.046 63.6927 29.6555 
427 2 31.046 65.3459 31.9936 
428 2 29.6142 62.8661 31.9936 
429 2 32.4777 61.2128 29.6555 
430 2 33.9095 63.6927 29.6555 
431 2 33.9095 65.3459 31.9936 
432 2 32.4777 62.8661 31.9936 
433 2 35.3412 61.2128 29.6555 
434 2 36.773 63.6927 29.6555 
435 2 36.773 65.3459 31.9936 
436 2 35.3412 62.8661 31.9936 
437 2 38.2047 61.2128 29.6555 
438 2 39.6365 63.6927 29.6555 
439 2 39.6365 65.3459 31.9936 
440 2 38.2047 62.8661 31.9936 
441 2 41.0682 61.2128 29.6555 
442 2 42.5 63.6927 29.6555 
443 2 42.5 65.3459 31.9936 
444 2 41.0682 62.8661 31.9936 
445 2 43.9318 61.2128 29.6555 
446 2 45.3635 63.6927 29.6555 
447 2 45.3635 65.3459 31.9936 
448 2 43.9318 62.8661 31.9936 
449 2 46.7953 61.2128 29.6555 
450 2 48.227 63.6927 29.6555 
451 2 48.227 65.3459 31.9936 
452 2 46.7953 62.8661 31.9936 
453 2 49.6588 61.2128 29.6555 
454 2 51.0905 63.6927 29.6555 
455 2 51.0905 65.3459 31.9936 
456 2 49.6588 62.8661 31.9936 
457 2 52.5223 61.2128 29.6555 
458 2 53.954 63.6927 29.6555 
459 2 53.954 65.3459 31.9936 
460 2 52.5223 62.8661 31.9936 
461 2 55.3858 61.2128 29.6555 
462 2 56.8175 63.6927 29.6555 
463 2 56.8175 65.3459 31.9936 
464 2 55.3858 62.8661 31.9936 
465 2 58.2493 61.2128 29.6555 
466 2 59.681 63.6927 29.6555 
467 2 59.681 65.3459 31.9936 
468 2 58.2493 62.8661 31.9936 
469 2 61.1128 61.2128 29.6555 
470 2 62.5445 63.6927 29.6555 
471 2 62.5445 65.3459 31.9936 
472 2 61.1128 62.8661 31.9936 
473 2 63.9763 61.2128 29.6555 
474 2 65.408 63.6927 29.6555 
475 2 65.408 65.3459 31.9936 
476 2 63.9763 62.8661 31.9936 
477 2 18.1602 66.1726 29.6555 
478 2 19.592 68.6524 29.6555 
479 2 19.592 70.3057 31.9936 
480 2 18.1602 67.8258 31.9936 
481 2 21.0237 66.1726 29.6555 
482 2 22.4555 68.6524 29.6555 
483 2 22.4555 70.3057 31.9936 
484 2 21.0237 67.8258 31.9936 
485 2 23.8872 66.1726 29.6555 
486 2 25.319 68.6524 29.6555 
487 2 25.319 70.3057 31.9936 
488 2 23.8872 67.8258 31.9936 
489 2 26.7507 66.1726 29.6555 
490 2 28.1825 68.6524 29.6555 
491 2 28.1825 70.3057 31.9936 
492 2 26.7507 67.8258 31.9936 
493 2 29.6142 66.1726 29.6555 
494 2 31.046 68.6524 29.6555 
495 2 31.046 70.3057 31.9936 
496 2 29.6142 67.8258 31.9936 
497 2 32.4777 66.1726 29.6555 
498 2 33.9095 68.6524 29.6555 
499 2 33.9095 70.3057 31.9936 
500 2 32.4777 67.8258 31.9936 
501 2 35.3412 66.1726 29.6555 
502 2 36.773 68.6524 29.6555 
503 2 36.773 70.3057 31.9936 
504 2 35.3412 67.8258 31.9936 
505 2 38.2047 66.1726 29.6555 
506 2 39.6365 68.6524 29.6555 
507 2 39.6365 70.3057 31.9936 
508 2 38.2047 67.8258 31.9936 
509 2 41.0682 66.1726 29.6555 
510 2 42.5 68.6524 29.6555 
511 2 42.5 70.3057 31.9936 
512 2 41.0682 67.8258 31.9936 
513 2 43.9318 66.1726 29.6555 
514 2 45.3635 68.6524 29.6555 
515 2 45.3635 70.3057 31.9936 
516 2 43.9318 67.8258 31.9936 
517 2 46.7953 66.1726 29.6555 
518 2 48.227 68.6524 29.6555 
519 2 48.227 70.3057 31.9936 
520 2 46.7953 67.8258 31.9936 
521 2 49.6588 66.1726 29.6555 
522 2 51.0905 68.6524 29.6555 
523 2 51.0905 70.3057 31.9936 
524 2 49.6588 67.8258 31.9936 
525 2 52.5223 66.1726 29.6555 
526 2 53.954 68.6524 29.6555 
527 2 53.954 70.3057 31.9936 
528 2 52.5223 67.8258 31.9936 
529 2 55.3858 66.1726 29.6555 
530 2 56.8175 68.6524 29.6555 
531 2 56.8175 70.3057 31.9936 
532 2 55.3858 67.8258 31.9936 
533 2 58.2493 66.1726 29.6555 
534 2 59.681 68.6524 29.6555 
535 2 59.681 70.3057 31.9936 
536 2 58.2493 67.8258 31.9936 
537 2 61.1128 66.1726 29.6555 
538 2 62.5445 68.6524 29.6555 
539 2 62.5445 70.3057 31.9936 
540 2 61.1128 67.8258 31.9936 
541 2 63.9763 66.1726 29.6555 
542 2 65.408 68.6524 29.6555 
543 2 65.408 70.3057 31.9936 
544 2 63.9763 67.8258 31.9936 
545 2 18.1602 71.1323 29.6555 
546 2 19.592 73.6122 29.6555 
547 2 19.592 75.2654 31.9936 
548 2 18.1602 72.7855 31.9936 
549 2 21.0237 71.1323 29.6555 
550 2 22.4555 73.6122 29.6555 
551 2 22.4555 75.2654 31.9936 
552 2 21.0237 72.7855 31.9936 
553 2 23.8872 71.1323 29.6555 
554 2 25.319 73.6122 29.6555 
555 2 25.319 75.2654 31.9936 
556 2 23.8872 72.7855 31.9936 
557 2 26.7507 71.1323 29.6555 
558 2 28.1825 73.6122 29.6555 
559 2 28.1825 75.2654 31.9936 
560 2 26.7507 72.7855 31.9936 
561 2 29.6142 71.1323 29.6555 
562 2 31.046 73.6122 29.6555 
563 2 31.046 75.2654 31.9936 
564 2 29.6142 72.7855 31.9936 
565 2 32.4777 71.1323 29.6555 
566 2 33.9095 73.6122 29.6555 
567 2 33.9095 75.2654 31.9936 
568 2 32.4777 72.7855 31.9936 
569 2 35.3412 71.1323 29.6555 
570 2 36.773 73.6122 29.6555 
571 2 36.773 75.2654 31.9936 
572 2 35.3412 72.7855 31.9936 
573 2 38.2047 71.1323 29.6555 
574 2 39.6365 73.6122 29.6555 
575 2 39.6365 75.2654 31.9936 
576 2 38.2047 72.7855 31.9936 
577 2 41.0682 71.1323 29.6555 
578 2 42.5 73.6122 29.6555 
579 2 42.5 75.2654 31.9936 
580 2 41.0682 72.7855 31.9936 
581 2 43.9318 71.1323 29.6555 
582 2 45.3635 73.6122 29.6555 
583 2 45.3635 75.2654 31.9936 
584 2 43.9318 72.7855 31.9936 
585 2 46.7953 71.1323 29.6555 
586 2 48.227 73.6122 29.6555 
587 2 48.227 75.2654 31.9936 
588 2 46.7953 72.7855 31.9936 
589 2 49.6588 71.1323 29.6555 
590 2 51.0905 73.6122 29.6555 
591 2 51.0905 75.2654 31.9936 
592 2 49.6588 72.7855 31.9936 
593 2 52.5223 71.1323 29.6555 
594 2 53.954 73.6122 29.6555 
595 2 53.954 75.2654 31.9936 
596 2 52.5223 72.7855 31.9936 
597 2 55.3858 71.1323 29.6555 
598 2 56.8175 73.6122 29.6555 
599 2 56.8175 75.2654 31.9936 
600 2 55.3858 72.7855 31.9936 
601 2 58.2493 71.1323 29.6555 
602 2 59.681 73.6122 29.6555 
603 2 59.681 75.2654 31.9936 
604 2 58.2493 72.7855 31.9936 
605 2 61.1128 71.1323 29.6555 
606 2 62.5445 73.6122 29.6555 
607 2 62.5445 75.2654 31.9936 
608 2 61.1128 72.7855 31.9936 
609 2 63.9763 71.1323 29.6555 
610 2 65.408 73.6122 29.6555 
611 2 65.408 75.2654 31.9936 
612 2 63.9763 72.7855 31.9936 
613 2 18.1602 76.092 29.6555 
614 2 19.592 78.5719 29.6555 
615 2 19.592 80.2251 31.9936 
616 2 18.1602 77.7453 31.9936 
617 2 21.0237 76.092 29.6555 
618 2 22.4555 78.5719 29.6555 
619 2 22.4555 80.2251 31.9936 
620 2 21.0237 77.7453 31.9936 
621 2 23.8872 76.092 29.6555 
622 2 25.319 78.5719 29.6555 
623 2 25.319 80.2251 31.9936 
624 2 23.8872 77.7453 31.9936 
625 2 26.7507 76.092 29.6555 
626 2 28.1825 78.5719 29.6555 
627 2 28.1825 80.2251 31.9936 
628 2 26.7507 77.7453 31.9936 
629 2 29.6142 76.092 29.6555 
630 2 31.046 78.5719 29.6555 
631 2 31.046 80.2251 31.9936 
632 2 29.6142 77.7453 31.9936 
633 2 32.4777 76.092 29.6555 
634 2 33.9095 78.5719 29.6555 
635 2 33.9095 80.2251 31.9936 
636 2 32.4777 77.7453 31.9936 
637 2 35.3412 76.092 29.6555 
638 2 36.773 78.5719 29.6555 
639 2 36.773 80.2251 31.9936 
640 2 35.3412 77.7453 31.9936 
641 2 38.2047 76.092 29.6555 
642 2 39.6365 78.5719 29.6555 
643 2 39.6365 80.2251 31.9936 
644 2 38.2047 77.7453 31.9936 
645 2 41.0682 76.092 29.6555 
646 2 42.5 78.5719 29.6555 
647 2 42.5 80.2251 31.9936 
648 2 41.0682 77.7453 31.9936 
649 2 43.9318 76.092 29.6555 
650 2 45.3635 78.5719 29.6555 
651 2 45.3635 80.2251 31.9936 
652 2 43.9318 77.7453 31.9936 
653 2 46.7953 76.092 29.6555 
654 2 48.227 78.5719 29.6555 
655 2 48.227 80.2251 31.9936 
656 2 46.7953 77.7453 31.9936 
657 2 49.6588 76.092 29.6555 
658 2 51.0905 78.5719 29.6555 
659 2 51.0905 80.2251 31.9936 
660 2 49.6588 77.7453 31.9936 
661 2 52.5223 76.092 29.6555 
662 2 53.954 78.5719 29.6555 
663 2 53.954 80.2251 31.9936 
664 2 52.5223 77.7453 31.9936 
665 2 55.3858 76.092 29.6555 
666 2 56.8175 78.5719 29.6555 
667 2 56.8175 80.2251 31.9936 
668 2 55.3858 77.7453 31.9936 
669 2 58.2493 76.092 29.6555 
670 2 59.681 78.5719 29.6555 
671 2 59.681 80.2251 31.9936 
672 2 58.2493 77.7453 31.9936 
673 2 61.1128 76.092 29.6555 
674 2 62.5445 78.5719 29.6555 
675 2 62.5445 80.2251 31.9936 
676 2 61.1128 77.7453 31.9936 
677 2 63.9763 76.092 29.6555 
678 2 65.408 78.5719 29.6555 
679 2 65.408 80.2251 31.9936 
680 2 63.9763 77.7453 31.9936 
681 2 18.1602 81.0518 29.6555 
682 2 19.592 83.5316 29.6555 
683 2 19.592 85.1849 31.9936 
684 2 18.1602 82.705 31.9936 
685 2 21.0237 81.0518 29.6555 
686 2 22.4555 83.5316 29.6555 
687 2 22.4555 85.1849 31.9936 
688 2 21.0237 82.705 31.9936 
689 2 23.8872 81.0518 29.6555 
690 2 25.319 83.5316 29.6555 
691 2 25.319 85.1849 31.9936 
692 2 23.8872 82.705 31.9936 
693 2 26.7507 81.0518 29.6555 
694 2 28.1825 83.5316 29.6555 
695 2 28.1825 85.1849 31.9936 
696 2 26.7507 82.705 31.9936 
697 2 29.6142 81.0518 29.6555 
698 2 31.046 83.5316 29.6555 
699 2 31.046 85.1849 31.9936 
700 2 29.6142 82.705 31.9936 
701 2 32.4777 81.0518 29.6555 
702 2 33.9095 83.5316 29.6555 
703 2 33.9095 85.1849 31.9936 
704 2 32.4777 82.705 31.9936 
705 2 35.3412 81.0518 29.6555 
706 2 36.773 83.5316 29.6555 
707 2 36.773 85.1849 31.9936 
708 2 35.3412 82.705 31.9936 
709 2 38.2047 81.0518 29.6555 
710 2 39.6365 83.5316 29.6555 
711 2 39.6365 85.1849 31.9936 
712 2 38.2047 82.705 31.9936 
713 2 41.0682 81.0518 29.6555 
714 2 42.5 83.5316 29.6555 
715 2 42.5 85.1849 31.9936 
716 2 41.0682 82.705 31.9936 
717 2 43.9318 81.0518 29.6555 
718 2 45.3635 83.5316 29.6555 
719 2 45.3635 85.1849 31.9936 
720 2 43.9318 82.705 31.9936 
721 2 46.7953 81.0518 29.6555 
722 2 48.227 83.5316 29.6555 
723 2 48.227 85.1849 31.9936 
724 2 46.7953 82.705 31.9936 
725 2 49.6588 81.0518 29.6555 
726 2 51.0905 83.5316 29.6555 
727 2 51.0905 85.1849 31.9936 
728 2 49.6588 82.705 31.9936 
729 2 52.5223 81.0518 29.6555 
730 2 53.954 83.5316 29.6555 
731 2 53.954 85.1849 31.9936 
732 2 52.5223 82.705 31.9936 
733 2 55.3858 81.0518 29.6555 
734 2 56.8175 83.5316 29.6555 
735 2 56.8175 85.1849 31.9936 
736 2 55.3858 82.705 31.9936 
737 2 58.2493 81.0518 29.6555 
738 2 59.681 83.5316 29.6555 
739 2 59.681 85.1849 31.9936 
740 2 58.2493 82.705 31.9936 
741 2 61.1128 81.0518 29.6555 
742 2 62.5445 83.5316 29.6555 
743 2 62.5445 85.1849 31.9936 
744 2 61.1128 82.705 31.9936 
745 2 63.9763 81.0518 29.6555 
746 2 65.408 83.5316 29.6555 
747 2 65.408 85.1849 31.9936 
748 2 63.9763 82.705 31.9936 
749 2 18.1602 86.0115 29.6555 
750 2 19.592 88.4913 29.6555 
751 2 19.592 90.1446 31.9936 
752 2 18.1602 87.6647 31.9936 
753 2 21.0237 86.0115 29.6555 
754 2 22.4555 88.4913 29.6555 
755 2 22.4555 90.1446 31.9936 
756 2 21.0237 87.6647 31.9936 
757 2 23.8872 86.0115 29.6555 
758 2 25.319 88.4913 29.6555 
759 2 25.319 90.1446 31.9936 
760 2 23.8872 87.6647 31.9936 
761 2 26.7507 86.0115 29.6555 
762 2 28.1825 88.4913 29.6555 
763 2 28.1825 90.1446 31.9936 
764 2 26.7507 87.6647 31.9936 
765 2 29.6142 86.0115 29.6555 
766 2 31.046 88.4913 29.6555 
767 2 31.046 90.1446 31.9936 
768 2 29.6142 87.6647 31.9936 
769 2 32.4777 86.0115 29.6555 
770 2 33.9095 88.4913 29.6555 
771 2 33.9095 90.1446 31.9936 
772 2 32.4777 87.6647 31.9936 
773 2 35.3412 86.0115 29.6555 
774 2 36.773 88.4913 29.6555 
775 2 36.773 90.1446 31.9936 
776 2 35.3412 87.6647 31.9936 
777 2 38.2047 86.0115 29.6555 
778 2 39.6365 88.4913 29.6555 
779 2 39.6365 90.1446 31.9936 
780 2 38.2047 87.6647 31.9936 
781 2 41.0682 86.0115 29.6555 
782 2 42.5 88.4913 29.6555 
783 2 42.5 90.1446 31.9936 
784 2 41.0682 87.6647 31.9936 
785 2 43.9318 86.0115 29.6555 
786 2 45.3635 88.4913 29.6555 
787 2 45.3635 90.1446 31.9936 
788 2 43.9318 87.6647 31.9936 
789 2 46.7953 86.0115 29.6555 
790 2 48.227 88.4913 29.6555 
791 2 48.227 90.1446 31.9936 
792 2 46.7953 87.6647 31.9936 
793 2 49.6588 86.0115 29.6555 
794 2 51.0905 88.4913 29.6555 
795 2 51.0905 90.1446 31.9936 
796 2 49.6588 87.6647 31.9936 
797 2 52.5223 86.0115 29.6555 
798 2 53.954 88.4913 29.6555 
799 2 53.954 90.1446 31.9936 
800 2 52.5223 87.6647 31.9936 
801 2 55.3858 86.0115 29.6555 
802 2 56.8175 88.4913 29.6555 
803 2 56.8175 90.1446 31.9936 
804 2 55.3858 87.6647 31.9936 
805 2 58.2493 86.0115 29.6555 
806 2 59.681 88.4913 29.6555 
807 2 59.681 90.1446 31.9936 
808 2 58.2493 87.6647 31.9936 
809 2 61.1128 86.0115 29.6555 
810 2 62.5445 88.4913 29.6555 
811 2 62.5445 90.1446 31.9936 
812 2 61.1128 87.6647 31.9936 
813 2 63.9763 86.0115 29.6555 
814 2 65.408 88.4913 29.6555 
815 2 65.408 90.1446 31.9936 
816 2 63.9763 87.6647 31.9936 
817 2 18.1602 90.9712 29.6555 
818 2 19.592 93.4511 29.6555 
819 2 19.592 95.1043 31.9936 
820 2 18.1602 92.6245 31.9936 
821 2 21.0237 90.9712 29.6555 
822 2 22.4555 93.4511 29.6555 
823 2 22.4555 95.1043 31.9936 
824 2 21.0237 92.6245 31.9936 
825 2 23.8872 90.9712 29.6555 
826 2 25.319 93.4511 29.6555 
827 2 25.319 95.1043 31.9936 
828 2 23.8872 92.6245 31.9936 
829 2 26.7507 90.9712 29.6555 
830 2 28.1825 93.4511 29.6555 
831 2 28.1825 95.1043 31.9936 
832 2 26.7507 92.6245 31.9936 
833 2 29.6142 90.9712 29.6555 
834 2 31.046 93.4511 29.6555 
835 2 31.046 95.1043 31.9936 
836 2 29.6142 92.6245 31.9936 
837 2 32.4777 90.9712 29.6555 
838 2 33.9095 93.4511 29.6555 
839 2 33.9095 95.1043 31.9936 
840 2 32.4777 92.6245 31.9936 
841 2 35.3412 90.9712 29.6555 
842 2 36.773 93.4511 29.6555 
843 2 36.773 95.1043 31.9936 
844 2 35.3412 92.6245 31.9936 
845 2 38.2047 90.9712 29.6555 
846 2 39.6365 93.4511 29.6555 
847 2 39.6365 95.1043 31.9936 
848 2 38.2047 92.6245 31.9936 
849 2 41.0682 90.9712 29.6555 
850 2 42.5 93.4511 29.6555 
851 2 42.5 95.1043 31.9936 
852 2 41.0682 92.6245 31.9936 
853 2 43.9318 90.9712 29.6555 
854 2 45.3635 93.4511 29.6555 
855 2 45.3635 95.1043 31.9936 
856 2 43.9318 92.6245 31.9936 
857 2 46.7953 90.9712 29.6555 
858 2 48.227 93.4511 29.6555 
859 2 48.227 95.1043 31.9936 
860 2 46.7953 92.6245 31.9936 
861 2 49.6588 90.9712 29.6555 
862 2 51.0905 93.4511 29.6555 
863 2 51.0905 95.1043 31.9936 
864 2 49.6588 92.6245 31.9936 
865 2 52.5223 90.9712 29.6555 
866 2 53.954 93.4511 29.6555 
867 2 53.954 95.1043 31.9936 
868 2 52.5223 92.6245 31.9936 
869 2 55.3858 90.9712 29.6555 
870 2 56.8175 93.4511 29.6555 
871 2 56.8175 95.1043 31.9936 
872 2 55.3858 92.6245 31.9936 
873 2 58.2493 90.9712 29.6555 
874 2 59.681 93.4511 29.6555 
875 2 59.681 95.1043 31.9936 
876 2 58.2493 92.6245 31.9936 
877 2 61.1128 90.9712 29.6555 
878 2 62.5445 93.4511 29.6555 
879 2 62.5445 95.1043 31.9936 
880 2 61.1128 92.6245 31.9936 
881 2 63.9763 90.9712 29.6555 
882 2 65.408 93.4511 29.6555 
883 2 65.408 95.1043 31.9936 
884 2 63.9763 92.6245 31.9936 
885 2 18.1602 95.9309 29.6555 
886 2 19.592 98.4108 29.6555 
887 2 19.592 100.064 31.9936 
888 2 18.1602 97.5842 31.9936 
889 2 21.0237 95.9309 29.6555 
890 2 22.4555 98.4108 29.6555 
891 2 22.4555 100.064 31.9936 
892 2 21.0237 97.5842 31.9936 
893 2 23.8872 95.9309 29.6555 
894 2 25.319 98.4108 29.6555 
895 2 25.319 100.064 31.9936 
896 2 23.8872 97.5842 31.9936 
897 2 26.7507 95.9309 29.6555 
898 2 28.1825 98.4108 29.6555 
899 2 28.1825 100.064 31.9936 
900 2 26.7507 97.5842 31.9936 
901 2 29.6142 95.9309 29.6555 
902 2 31.046 98.4108 29.6555 
903 2 31.046 100.064 31.9936 
904 2 29.6142 97.5842 31.9936 
905 2 32.4777 95.9309 29.6555 
906 2 33.9095 98.4108 29.6555 
907 2 33.9095 100.064 31.9936 
908 2 32.4777 97.5842 31.9936 
909 2 35.3412 95.9309 29.6555 
910 2 36.773 98.4108 29.6555 
911 2 36.773 100.064 31.9936 
912 2 35.3412 97.5842 31.9936 
913 2 38.2047 95.9309 29.6555 
914 2 39.6365 98.4108 29.6555 
915 2 39.6365 100.064 31.9936 
916 2 38.2047 97.5842 31.9936 
917 2 41.0682 95.9309 29.6555 
918 2 42.5 98.4108 29.6555 
919 2 42.5 100.064 31.9936 
920 2 41.0682 97.5842 31.9936 
921 2 43.9318 95.9309 29.6555 
922 2 45.3635 98.4108 29.6555 
923 2 45.3635 100.064 31.9936 
924 2 43.9318 97.5842 31.9936 
925 2 46.7953 95.9309 29.6555 
926 2 48.227 98.4108 29.6555 
927 2 48.227 100.064 31.9936 
928 2 46.7953 97.5842 31.9936 
929 2 49.6588 95.9309 29.6555 
930 2 51.0905 98.4108 29.6555 
931 2 51.0905 100.064 31.9936 
932 2 49.6588 97.5842 31.9936 
933 2 52.5223 95.9309 29.6555 
934 2 53.954 98.4108 29.6555 
935 2 53.954 100.064 31.9936 
936 2 52.5223 97.5842 31.9936 
937 2 55.3858 95.9309 29.6555 
938 2 56.8175 98.4108 29.6555 
939 2 56.8175 100.064 31.9936 
940 2 55.3858 97.5842 31.9936 
941 2 58.2493 95.9309 29.6555 
942 2 59.681 98.4108 29.6555 
943 2 59.681 100.064 31.9936 
944 2 58.2493 97.5842 31.9936 
945 2 61.1128 95.9309 29.6555 
946 2 62.5445 98.4108 29.6555 
947 2 62.5445 100.064 31.9936 
948 2 61.1128 97.5842 31.9936 
949 2 63.9763 95.9309 29.6555 
950 2 65.408 98.4108 29.6555 
951 2 65.408 100.064 31.9936 
952 2 63.9763 97.5842 31.9936 
953 2 18.1602 100.891 29.6555 
954 2 19.592 103.371 29.6555 
955 2 19.592 105.024 31.9936 
956 2 18.1602 102.544 31.9936 
957 2 21.0237 100.891 29.6555 
958 2 22.4555 103.371 29.6555 
959 2 22.4555 105.024 31.9936 
960 2 21.0237 102.544 31.9936 
961 2 23.8872 100.891 29.6555 
962 2 25.319 103.371 29.6555 
963 2 25.319 105.024 31.9936 
964 2 23.8872 102.544 31.9936 
965 2 26.7507 100.891 29.6555 
966 2 28.1825 103.371 29.6555 
967 2 28.1825 105.024 31.9936 
968 2 26.7507 102.544 31.9936 
969 2 29.6142 100.891 29.6555 
970 2 31.046 103.371 29.6555 
971 2 31.046 105.024 31.9936 
972 2 29.6142 102.544 31.9936 
973 2 32.4777 100.891 29.6555 
974 2 33.9095 103.371 29.6555 
975 2 33.9095 105.024 31.9936 